n -t * -s 0  -x 198 -y 470 -Z 0 -z 20  -v circle -c green
n -t * -s 1  -x 364 -y 470 -Z 0 -z 20  -v circle -c green
n -t * -s 2  -x 259 -y 380 -Z 0 -z 20  -v circle -c green
n -t * -s 3  -x 388 -y 365 -Z 0 -z 20  -v circle -c green
n -t * -s 4  -x 313 -y 285 -Z 0 -z 20  -v circle -c green
n -t * -s 5  -x 196 -y 287 -Z 0 -z 20  -v circle -c green
n -t * -s 6  -x 436 -y 252 -Z 0 -z 20  -v circle -c green
n -t * -s 7  -x 483 -y 406 -Z 0 -z 20  -v circle -c green
n -t * -s 8  -x 534 -y 481 -Z 0 -z 20  -v circle -c green
n -t * -s 9  -x 575 -y 394 -Z 0 -z 20  -v circle -c green
n -t * -s 10  -x 597 -y 295 -Z 0 -z 20  -v circle -c green
n -t * -s 11  -x 558 -y 210 -Z 0 -z 20  -v circle -c green
n -t * -s 12  -x 423 -y 134 -Z 0 -z 20  -v circle -c green
n -t * -s 13  -x 277 -y 154 -Z 0 -z 20  -v circle -c green
n -t * -s 14  -x 545 -y 104 -Z 0 -z 20  -v circle -c green
n -t * -s 15  -x 341 -y 72 -Z 0 -z 20  -v circle -c green
V -t * -v 1.0a5 -a 0
W -t * -x 800 -y 700
A -t * -n 1 -p 0 -o 0x7fffffff -c 30 -a 1
A -t * -h 1 -m 1073741823 -s 0
+ -t 0.030157374 -s 0 -d -1 -p message -e 32 -c 2 -a 0 -i 0 -k RTR 
- -t 0.030157374 -s 0 -d -1 -p message -e 32 -c 2 -a 0 -i 0 -k RTR
h -t 0.030157374 -s 0 -d -1 -p message -e 32 -c 2 -a 0 -i 0 -k RTR
+ -t 0.030552374 -s 0 -d -1 -p message -e 90 -c 2 -a 0 -i 0 -k MAC 
- -t 0.030552374 -s 0 -d -1 -p message -e 90 -c 2 -a 0 -i 0 -k MAC
h -t 0.030552374 -s 0 -d -1 -p message -e 90 -c 2 -a 0 -i 0 -k MAC
r -t 0.031272736 -s 2 -d -1 -p message -e 32 -c 2 -a 0 -i 0 -k MAC
r -t 0.031272927 -s 1 -d -1 -p message -e 32 -c 2 -a 0 -i 0 -k MAC
r -t 0.031272984 -s 5 -d -1 -p message -e 32 -c 2 -a 0 -i 0 -k MAC
r -t 0.031273097 -s 3 -d -1 -p message -e 32 -c 2 -a 0 -i 0 -k MAC
r -t 0.031273100 -s 4 -d -1 -p message -e 32 -c 2 -a 0 -i 0 -k MAC
r -t 0.031297736 -s 2 -d -1 -p message -e 32 -c 2 -a 0 -i 0 -k RTR
r -t 0.031297927 -s 1 -d -1 -p message -e 32 -c 2 -a 0 -i 0 -k RTR
r -t 0.031297984 -s 5 -d -1 -p message -e 32 -c 2 -a 0 -i 0 -k RTR
r -t 0.031298097 -s 3 -d -1 -p message -e 32 -c 2 -a 0 -i 0 -k RTR
r -t 0.031298100 -s 4 -d -1 -p message -e 32 -c 2 -a 0 -i 0 -k RTR
+ -t 0.088169995 -s 11 -d -1 -p message -e 32 -c 2 -a 0 -i 1 -k RTR 
- -t 0.088169995 -s 11 -d -1 -p message -e 32 -c 2 -a 0 -i 1 -k RTR
h -t 0.088169995 -s 11 -d -1 -p message -e 32 -c 2 -a 0 -i 1 -k RTR
+ -t 0.088484995 -s 11 -d -1 -p message -e 90 -c 2 -a 0 -i 1 -k MAC 
- -t 0.088484995 -s 11 -d -1 -p message -e 90 -c 2 -a 0 -i 1 -k MAC
h -t 0.088484995 -s 11 -d -1 -p message -e 90 -c 2 -a 0 -i 1 -k MAC
r -t 0.089205307 -s 10 -d -1 -p message -e 32 -c 2 -a 0 -i 1 -k MAC
r -t 0.089205351 -s 14 -d -1 -p message -e 32 -c 2 -a 0 -i 1 -k MAC
r -t 0.089205425 -s 6 -d -1 -p message -e 32 -c 2 -a 0 -i 1 -k MAC
r -t 0.089205511 -s 12 -d -1 -p message -e 32 -c 2 -a 0 -i 1 -k MAC
r -t 0.089205611 -s 9 -d -1 -p message -e 32 -c 2 -a 0 -i 1 -k MAC
r -t 0.089205694 -s 7 -d -1 -p message -e 32 -c 2 -a 0 -i 1 -k MAC
r -t 0.089205762 -s 3 -d -1 -p message -e 32 -c 2 -a 0 -i 1 -k MAC
r -t 0.089230307 -s 10 -d -1 -p message -e 32 -c 2 -a 0 -i 1 -k RTR
r -t 0.089230351 -s 14 -d -1 -p message -e 32 -c 2 -a 0 -i 1 -k RTR
r -t 0.089230425 -s 6 -d -1 -p message -e 32 -c 2 -a 0 -i 1 -k RTR
r -t 0.089230511 -s 12 -d -1 -p message -e 32 -c 2 -a 0 -i 1 -k RTR
r -t 0.089230611 -s 9 -d -1 -p message -e 32 -c 2 -a 0 -i 1 -k RTR
r -t 0.089230694 -s 7 -d -1 -p message -e 32 -c 2 -a 0 -i 1 -k RTR
r -t 0.089230762 -s 3 -d -1 -p message -e 32 -c 2 -a 0 -i 1 -k RTR
+ -t 0.183168411 -s 1 -d -1 -p message -e 32 -c 2 -a 0 -i 2 -k RTR 
- -t 0.183168411 -s 1 -d -1 -p message -e 32 -c 2 -a 0 -i 2 -k RTR
h -t 0.183168411 -s 1 -d -1 -p message -e 32 -c 2 -a 0 -i 2 -k RTR
+ -t 0.183643411 -s 1 -d -1 -p message -e 90 -c 2 -a 0 -i 2 -k MAC 
- -t 0.183643411 -s 1 -d -1 -p message -e 90 -c 2 -a 0 -i 2 -k MAC
h -t 0.183643411 -s 1 -d -1 -p message -e 90 -c 2 -a 0 -i 2 -k MAC
r -t 0.184363770 -s 3 -d -1 -p message -e 32 -c 2 -a 0 -i 2 -k MAC
r -t 0.184363861 -s 7 -d -1 -p message -e 32 -c 2 -a 0 -i 2 -k MAC
r -t 0.184363872 -s 2 -d -1 -p message -e 32 -c 2 -a 0 -i 2 -k MAC
r -t 0.184363964 -s 0 -d -1 -p message -e 32 -c 2 -a 0 -i 2 -k MAC
r -t 0.184363979 -s 8 -d -1 -p message -e 32 -c 2 -a 0 -i 2 -k MAC
r -t 0.184364051 -s 4 -d -1 -p message -e 32 -c 2 -a 0 -i 2 -k MAC
r -t 0.184364159 -s 9 -d -1 -p message -e 32 -c 2 -a 0 -i 2 -k MAC
r -t 0.184364176 -s 6 -d -1 -p message -e 32 -c 2 -a 0 -i 2 -k MAC
r -t 0.184364239 -s 5 -d -1 -p message -e 32 -c 2 -a 0 -i 2 -k MAC
r -t 0.184388770 -s 3 -d -1 -p message -e 32 -c 2 -a 0 -i 2 -k RTR
r -t 0.184388861 -s 7 -d -1 -p message -e 32 -c 2 -a 0 -i 2 -k RTR
r -t 0.184388872 -s 2 -d -1 -p message -e 32 -c 2 -a 0 -i 2 -k RTR
r -t 0.184388964 -s 0 -d -1 -p message -e 32 -c 2 -a 0 -i 2 -k RTR
r -t 0.184388979 -s 8 -d -1 -p message -e 32 -c 2 -a 0 -i 2 -k RTR
r -t 0.184389051 -s 4 -d -1 -p message -e 32 -c 2 -a 0 -i 2 -k RTR
r -t 0.184389159 -s 9 -d -1 -p message -e 32 -c 2 -a 0 -i 2 -k RTR
r -t 0.184389176 -s 6 -d -1 -p message -e 32 -c 2 -a 0 -i 2 -k RTR
r -t 0.184389239 -s 5 -d -1 -p message -e 32 -c 2 -a 0 -i 2 -k RTR
+ -t 0.230028753 -s 13 -d -1 -p message -e 32 -c 2 -a 0 -i 3 -k RTR 
- -t 0.230028753 -s 13 -d -1 -p message -e 32 -c 2 -a 0 -i 3 -k RTR
h -t 0.230028753 -s 13 -d -1 -p message -e 32 -c 2 -a 0 -i 3 -k RTR
+ -t 0.230403753 -s 13 -d -1 -p message -e 90 -c 2 -a 0 -i 3 -k MAC 
- -t 0.230403753 -s 13 -d -1 -p message -e 90 -c 2 -a 0 -i 3 -k MAC
h -t 0.230403753 -s 13 -d -1 -p message -e 90 -c 2 -a 0 -i 3 -k MAC
r -t 0.231124100 -s 15 -d -1 -p message -e 32 -c 2 -a 0 -i 3 -k MAC
r -t 0.231124206 -s 4 -d -1 -p message -e 32 -c 2 -a 0 -i 3 -k MAC
r -t 0.231124245 -s 12 -d -1 -p message -e 32 -c 2 -a 0 -i 3 -k MAC
r -t 0.231124273 -s 5 -d -1 -p message -e 32 -c 2 -a 0 -i 3 -k MAC
r -t 0.231124376 -s 6 -d -1 -p message -e 32 -c 2 -a 0 -i 3 -k MAC
r -t 0.231124509 -s 2 -d -1 -p message -e 32 -c 2 -a 0 -i 3 -k MAC
r -t 0.231124548 -s 3 -d -1 -p message -e 32 -c 2 -a 0 -i 3 -k MAC
r -t 0.231149100 -s 15 -d -1 -p message -e 32 -c 2 -a 0 -i 3 -k RTR
r -t 0.231149206 -s 4 -d -1 -p message -e 32 -c 2 -a 0 -i 3 -k RTR
r -t 0.231149245 -s 12 -d -1 -p message -e 32 -c 2 -a 0 -i 3 -k RTR
r -t 0.231149273 -s 5 -d -1 -p message -e 32 -c 2 -a 0 -i 3 -k RTR
r -t 0.231149376 -s 6 -d -1 -p message -e 32 -c 2 -a 0 -i 3 -k RTR
r -t 0.231149509 -s 2 -d -1 -p message -e 32 -c 2 -a 0 -i 3 -k RTR
r -t 0.231149548 -s 3 -d -1 -p message -e 32 -c 2 -a 0 -i 3 -k RTR
+ -t 0.337340268 -s 10 -d -1 -p message -e 32 -c 2 -a 0 -i 4 -k RTR 
- -t 0.337340268 -s 10 -d -1 -p message -e 32 -c 2 -a 0 -i 4 -k RTR
h -t 0.337340268 -s 10 -d -1 -p message -e 32 -c 2 -a 0 -i 4 -k RTR
+ -t 0.337695268 -s 10 -d -1 -p message -e 90 -c 2 -a 0 -i 4 -k MAC 
- -t 0.337695268 -s 10 -d -1 -p message -e 90 -c 2 -a 0 -i 4 -k MAC
h -t 0.337695268 -s 10 -d -1 -p message -e 90 -c 2 -a 0 -i 4 -k MAC
r -t 0.338415580 -s 11 -d -1 -p message -e 32 -c 2 -a 0 -i 4 -k MAC
r -t 0.338415606 -s 9 -d -1 -p message -e 32 -c 2 -a 0 -i 4 -k MAC
r -t 0.338415798 -s 7 -d -1 -p message -e 32 -c 2 -a 0 -i 4 -k MAC
r -t 0.338415823 -s 6 -d -1 -p message -e 32 -c 2 -a 0 -i 4 -k MAC
r -t 0.338415922 -s 8 -d -1 -p message -e 32 -c 2 -a 0 -i 4 -k MAC
r -t 0.338415928 -s 14 -d -1 -p message -e 32 -c 2 -a 0 -i 4 -k MAC
r -t 0.338416003 -s 3 -d -1 -p message -e 32 -c 2 -a 0 -i 4 -k MAC
r -t 0.338416058 -s 12 -d -1 -p message -e 32 -c 2 -a 0 -i 4 -k MAC
r -t 0.338440580 -s 11 -d -1 -p message -e 32 -c 2 -a 0 -i 4 -k RTR
r -t 0.338440606 -s 9 -d -1 -p message -e 32 -c 2 -a 0 -i 4 -k RTR
r -t 0.338440798 -s 7 -d -1 -p message -e 32 -c 2 -a 0 -i 4 -k RTR
r -t 0.338440823 -s 6 -d -1 -p message -e 32 -c 2 -a 0 -i 4 -k RTR
r -t 0.338440922 -s 8 -d -1 -p message -e 32 -c 2 -a 0 -i 4 -k RTR
r -t 0.338440928 -s 14 -d -1 -p message -e 32 -c 2 -a 0 -i 4 -k RTR
r -t 0.338441003 -s 3 -d -1 -p message -e 32 -c 2 -a 0 -i 4 -k RTR
r -t 0.338441058 -s 12 -d -1 -p message -e 32 -c 2 -a 0 -i 4 -k RTR
+ -t 0.471077156 -s 6 -d -1 -p message -e 32 -c 2 -a 0 -i 5 -k RTR 
- -t 0.471077156 -s 6 -d -1 -p message -e 32 -c 2 -a 0 -i 5 -k RTR
h -t 0.471077156 -s 6 -d -1 -p message -e 32 -c 2 -a 0 -i 5 -k RTR
+ -t 0.471372156 -s 6 -d -1 -p message -e 90 -c 2 -a 0 -i 5 -k MAC 
- -t 0.471372156 -s 6 -d -1 -p message -e 90 -c 2 -a 0 -i 5 -k MAC
h -t 0.471372156 -s 6 -d -1 -p message -e 90 -c 2 -a 0 -i 5 -k MAC
r -t 0.472092552 -s 12 -d -1 -p message -e 32 -c 2 -a 0 -i 5 -k MAC
r -t 0.472092565 -s 3 -d -1 -p message -e 32 -c 2 -a 0 -i 5 -k MAC
r -t 0.472092581 -s 4 -d -1 -p message -e 32 -c 2 -a 0 -i 5 -k MAC
r -t 0.472092586 -s 11 -d -1 -p message -e 32 -c 2 -a 0 -i 5 -k MAC
r -t 0.472092693 -s 7 -d -1 -p message -e 32 -c 2 -a 0 -i 5 -k MAC
r -t 0.472092712 -s 10 -d -1 -p message -e 32 -c 2 -a 0 -i 5 -k MAC
r -t 0.472092769 -s 14 -d -1 -p message -e 32 -c 2 -a 0 -i 5 -k MAC
r -t 0.472092779 -s 13 -d -1 -p message -e 32 -c 2 -a 0 -i 5 -k MAC
r -t 0.472092818 -s 9 -d -1 -p message -e 32 -c 2 -a 0 -i 5 -k MAC
r -t 0.472092835 -s 15 -d -1 -p message -e 32 -c 2 -a 0 -i 5 -k MAC
r -t 0.472092884 -s 2 -d -1 -p message -e 32 -c 2 -a 0 -i 5 -k MAC
r -t 0.472092921 -s 1 -d -1 -p message -e 32 -c 2 -a 0 -i 5 -k MAC
r -t 0.472092965 -s 5 -d -1 -p message -e 32 -c 2 -a 0 -i 5 -k MAC
r -t 0.472092986 -s 8 -d -1 -p message -e 32 -c 2 -a 0 -i 5 -k MAC
r -t 0.472117552 -s 12 -d -1 -p message -e 32 -c 2 -a 0 -i 5 -k RTR
r -t 0.472117565 -s 3 -d -1 -p message -e 32 -c 2 -a 0 -i 5 -k RTR
r -t 0.472117581 -s 4 -d -1 -p message -e 32 -c 2 -a 0 -i 5 -k RTR
r -t 0.472117586 -s 11 -d -1 -p message -e 32 -c 2 -a 0 -i 5 -k RTR
r -t 0.472117693 -s 7 -d -1 -p message -e 32 -c 2 -a 0 -i 5 -k RTR
r -t 0.472117712 -s 10 -d -1 -p message -e 32 -c 2 -a 0 -i 5 -k RTR
r -t 0.472117769 -s 14 -d -1 -p message -e 32 -c 2 -a 0 -i 5 -k RTR
r -t 0.472117779 -s 13 -d -1 -p message -e 32 -c 2 -a 0 -i 5 -k RTR
r -t 0.472117818 -s 9 -d -1 -p message -e 32 -c 2 -a 0 -i 5 -k RTR
r -t 0.472117835 -s 15 -d -1 -p message -e 32 -c 2 -a 0 -i 5 -k RTR
r -t 0.472117884 -s 2 -d -1 -p message -e 32 -c 2 -a 0 -i 5 -k RTR
r -t 0.472117921 -s 1 -d -1 -p message -e 32 -c 2 -a 0 -i 5 -k RTR
r -t 0.472117965 -s 5 -d -1 -p message -e 32 -c 2 -a 0 -i 5 -k RTR
r -t 0.472117986 -s 8 -d -1 -p message -e 32 -c 2 -a 0 -i 5 -k RTR
+ -t 0.619278429 -s 8 -d -1 -p message -e 32 -c 2 -a 0 -i 6 -k RTR 
- -t 0.619278429 -s 8 -d -1 -p message -e 32 -c 2 -a 0 -i 6 -k RTR
h -t 0.619278429 -s 8 -d -1 -p message -e 32 -c 2 -a 0 -i 6 -k RTR
+ -t 0.619473429 -s 8 -d -1 -p message -e 90 -c 2 -a 0 -i 6 -k MAC 
- -t 0.619473429 -s 8 -d -1 -p message -e 90 -c 2 -a 0 -i 6 -k MAC
h -t 0.619473429 -s 8 -d -1 -p message -e 90 -c 2 -a 0 -i 6 -k MAC
r -t 0.620193731 -s 7 -d -1 -p message -e 32 -c 2 -a 0 -i 6 -k MAC
r -t 0.620193749 -s 9 -d -1 -p message -e 32 -c 2 -a 0 -i 6 -k MAC
r -t 0.620193997 -s 1 -d -1 -p message -e 32 -c 2 -a 0 -i 6 -k MAC
r -t 0.620194050 -s 3 -d -1 -p message -e 32 -c 2 -a 0 -i 6 -k MAC
r -t 0.620194083 -s 10 -d -1 -p message -e 32 -c 2 -a 0 -i 6 -k MAC
r -t 0.620194259 -s 6 -d -1 -p message -e 32 -c 2 -a 0 -i 6 -k MAC
r -t 0.620218731 -s 7 -d -1 -p message -e 32 -c 2 -a 0 -i 6 -k RTR
r -t 0.620218749 -s 9 -d -1 -p message -e 32 -c 2 -a 0 -i 6 -k RTR
r -t 0.620218997 -s 1 -d -1 -p message -e 32 -c 2 -a 0 -i 6 -k RTR
r -t 0.620219050 -s 3 -d -1 -p message -e 32 -c 2 -a 0 -i 6 -k RTR
r -t 0.620219083 -s 10 -d -1 -p message -e 32 -c 2 -a 0 -i 6 -k RTR
r -t 0.620219259 -s 6 -d -1 -p message -e 32 -c 2 -a 0 -i 6 -k RTR
+ -t 0.629280171 -s 4 -d -1 -p message -e 32 -c 2 -a 0 -i 7 -k RTR 
- -t 0.629280171 -s 4 -d -1 -p message -e 32 -c 2 -a 0 -i 7 -k RTR
h -t 0.629280171 -s 4 -d -1 -p message -e 32 -c 2 -a 0 -i 7 -k RTR
+ -t 0.629535171 -s 4 -d -1 -p message -e 90 -c 2 -a 0 -i 7 -k MAC 
- -t 0.629535171 -s 4 -d -1 -p message -e 90 -c 2 -a 0 -i 7 -k MAC
h -t 0.629535171 -s 4 -d -1 -p message -e 90 -c 2 -a 0 -i 7 -k MAC
r -t 0.630255535 -s 2 -d -1 -p message -e 32 -c 2 -a 0 -i 7 -k MAC
r -t 0.630255536 -s 3 -d -1 -p message -e 32 -c 2 -a 0 -i 7 -k MAC
r -t 0.630255561 -s 5 -d -1 -p message -e 32 -c 2 -a 0 -i 7 -k MAC
r -t 0.630255595 -s 6 -d -1 -p message -e 32 -c 2 -a 0 -i 7 -k MAC
r -t 0.630255624 -s 13 -d -1 -p message -e 32 -c 2 -a 0 -i 7 -k MAC
r -t 0.630255794 -s 12 -d -1 -p message -e 32 -c 2 -a 0 -i 7 -k MAC
r -t 0.630255811 -s 1 -d -1 -p message -e 32 -c 2 -a 0 -i 7 -k MAC
r -t 0.630255866 -s 7 -d -1 -p message -e 32 -c 2 -a 0 -i 7 -k MAC
r -t 0.630255887 -s 15 -d -1 -p message -e 32 -c 2 -a 0 -i 7 -k MAC
r -t 0.630255897 -s 0 -d -1 -p message -e 32 -c 2 -a 0 -i 7 -k MAC
r -t 0.630280535 -s 2 -d -1 -p message -e 32 -c 2 -a 0 -i 7 -k RTR
r -t 0.630280536 -s 3 -d -1 -p message -e 32 -c 2 -a 0 -i 7 -k RTR
r -t 0.630280561 -s 5 -d -1 -p message -e 32 -c 2 -a 0 -i 7 -k RTR
r -t 0.630280595 -s 6 -d -1 -p message -e 32 -c 2 -a 0 -i 7 -k RTR
r -t 0.630280624 -s 13 -d -1 -p message -e 32 -c 2 -a 0 -i 7 -k RTR
r -t 0.630280794 -s 12 -d -1 -p message -e 32 -c 2 -a 0 -i 7 -k RTR
r -t 0.630280811 -s 1 -d -1 -p message -e 32 -c 2 -a 0 -i 7 -k RTR
r -t 0.630280866 -s 7 -d -1 -p message -e 32 -c 2 -a 0 -i 7 -k RTR
r -t 0.630280887 -s 15 -d -1 -p message -e 32 -c 2 -a 0 -i 7 -k RTR
r -t 0.630280897 -s 0 -d -1 -p message -e 32 -c 2 -a 0 -i 7 -k RTR
+ -t 0.854300205 -s 15 -d -1 -p message -e 32 -c 2 -a 0 -i 8 -k RTR 
- -t 0.854300205 -s 15 -d -1 -p message -e 32 -c 2 -a 0 -i 8 -k RTR
h -t 0.854300205 -s 15 -d -1 -p message -e 32 -c 2 -a 0 -i 8 -k RTR
+ -t 0.854595205 -s 15 -d -1 -p message -e 90 -c 2 -a 0 -i 8 -k MAC 
- -t 0.854595205 -s 15 -d -1 -p message -e 90 -c 2 -a 0 -i 8 -k MAC
h -t 0.854595205 -s 15 -d -1 -p message -e 90 -c 2 -a 0 -i 8 -k MAC
r -t 0.855315548 -s 12 -d -1 -p message -e 32 -c 2 -a 0 -i 8 -k MAC
r -t 0.855315552 -s 13 -d -1 -p message -e 32 -c 2 -a 0 -i 8 -k MAC
r -t 0.855315883 -s 6 -d -1 -p message -e 32 -c 2 -a 0 -i 8 -k MAC
r -t 0.855315893 -s 14 -d -1 -p message -e 32 -c 2 -a 0 -i 8 -k MAC
r -t 0.855315921 -s 4 -d -1 -p message -e 32 -c 2 -a 0 -i 8 -k MAC
r -t 0.855340548 -s 12 -d -1 -p message -e 32 -c 2 -a 0 -i 8 -k RTR
r -t 0.855340552 -s 13 -d -1 -p message -e 32 -c 2 -a 0 -i 8 -k RTR
r -t 0.855340883 -s 6 -d -1 -p message -e 32 -c 2 -a 0 -i 8 -k RTR
r -t 0.855340893 -s 14 -d -1 -p message -e 32 -c 2 -a 0 -i 8 -k RTR
r -t 0.855340921 -s 4 -d -1 -p message -e 32 -c 2 -a 0 -i 8 -k RTR
+ -t 0.887895161 -s 2 -d -1 -p message -e 32 -c 2 -a 0 -i 9 -k RTR 
- -t 0.887895161 -s 2 -d -1 -p message -e 32 -c 2 -a 0 -i 9 -k RTR
h -t 0.887895161 -s 2 -d -1 -p message -e 32 -c 2 -a 0 -i 9 -k RTR
+ -t 0.888050161 -s 2 -d -1 -p message -e 90 -c 2 -a 0 -i 9 -k MAC 
- -t 0.888050161 -s 2 -d -1 -p message -e 90 -c 2 -a 0 -i 9 -k MAC
h -t 0.888050161 -s 2 -d -1 -p message -e 90 -c 2 -a 0 -i 9 -k MAC
r -t 0.888770523 -s 0 -d -1 -p message -e 32 -c 2 -a 0 -i 9 -k MAC
r -t 0.888770525 -s 4 -d -1 -p message -e 32 -c 2 -a 0 -i 9 -k MAC
r -t 0.888770535 -s 5 -d -1 -p message -e 32 -c 2 -a 0 -i 9 -k MAC
r -t 0.888770594 -s 3 -d -1 -p message -e 32 -c 2 -a 0 -i 9 -k MAC
r -t 0.888770622 -s 1 -d -1 -p message -e 32 -c 2 -a 0 -i 9 -k MAC
r -t 0.888770889 -s 6 -d -1 -p message -e 32 -c 2 -a 0 -i 9 -k MAC
r -t 0.888770913 -s 7 -d -1 -p message -e 32 -c 2 -a 0 -i 9 -k MAC
r -t 0.888770917 -s 13 -d -1 -p message -e 32 -c 2 -a 0 -i 9 -k MAC
r -t 0.888795523 -s 0 -d -1 -p message -e 32 -c 2 -a 0 -i 9 -k RTR
r -t 0.888795525 -s 4 -d -1 -p message -e 32 -c 2 -a 0 -i 9 -k RTR
r -t 0.888795535 -s 5 -d -1 -p message -e 32 -c 2 -a 0 -i 9 -k RTR
r -t 0.888795594 -s 3 -d -1 -p message -e 32 -c 2 -a 0 -i 9 -k RTR
r -t 0.888795622 -s 1 -d -1 -p message -e 32 -c 2 -a 0 -i 9 -k RTR
r -t 0.888795889 -s 6 -d -1 -p message -e 32 -c 2 -a 0 -i 9 -k RTR
r -t 0.888795913 -s 7 -d -1 -p message -e 32 -c 2 -a 0 -i 9 -k RTR
r -t 0.888795917 -s 13 -d -1 -p message -e 32 -c 2 -a 0 -i 9 -k RTR
n -t 1.000000 -s 3 -x 388.000000 -y 365.000000 -U 8.648971 -V -5.019492 -T 12.949517
+ -t 1.000000000 -s 5 -d -1 -p tcp -e 40 -c 2 -a 0 -i 10 -k AGT 
- -t 1.000000000 -s 5 -d -1 -p tcp -e 40 -c 2 -a 0 -i 10 -k AGT
h -t 1.000000000 -s 5 -d -1 -p tcp -e 40 -c 2 -a 0 -i 10 -k AGT
+ -t 1.279592429 -s 7 -d -1 -p message -e 32 -c 2 -a 0 -i 11 -k RTR 
- -t 1.279592429 -s 7 -d -1 -p message -e 32 -c 2 -a 0 -i 11 -k RTR
h -t 1.279592429 -s 7 -d -1 -p message -e 32 -c 2 -a 0 -i 11 -k RTR
+ -t 1.279967429 -s 7 -d -1 -p message -e 90 -c 2 -a 0 -i 11 -k MAC 
- -t 1.279967429 -s 7 -d -1 -p message -e 90 -c 2 -a 0 -i 11 -k MAC
h -t 1.279967429 -s 7 -d -1 -p message -e 90 -c 2 -a 0 -i 11 -k MAC
r -t 1.280687731 -s 8 -d -1 -p message -e 32 -c 2 -a 0 -i 11 -k MAC
r -t 1.280687738 -s 9 -d -1 -p message -e 32 -c 2 -a 0 -i 11 -k MAC
r -t 1.280687768 -s 3 -d -1 -p message -e 32 -c 2 -a 0 -i 11 -k MAC
r -t 1.280687879 -s 1 -d -1 -p message -e 32 -c 2 -a 0 -i 11 -k MAC
r -t 1.280687959 -s 10 -d -1 -p message -e 32 -c 2 -a 0 -i 11 -k MAC
r -t 1.280687966 -s 6 -d -1 -p message -e 32 -c 2 -a 0 -i 11 -k MAC
r -t 1.280688125 -s 4 -d -1 -p message -e 32 -c 2 -a 0 -i 11 -k MAC
r -t 1.280688129 -s 11 -d -1 -p message -e 32 -c 2 -a 0 -i 11 -k MAC
r -t 1.280688181 -s 2 -d -1 -p message -e 32 -c 2 -a 0 -i 11 -k MAC
r -t 1.280712731 -s 8 -d -1 -p message -e 32 -c 2 -a 0 -i 11 -k RTR
r -t 1.280712738 -s 9 -d -1 -p message -e 32 -c 2 -a 0 -i 11 -k RTR
r -t 1.280712768 -s 3 -d -1 -p message -e 32 -c 2 -a 0 -i 11 -k RTR
r -t 1.280712879 -s 1 -d -1 -p message -e 32 -c 2 -a 0 -i 11 -k RTR
r -t 1.280712959 -s 10 -d -1 -p message -e 32 -c 2 -a 0 -i 11 -k RTR
r -t 1.280712966 -s 6 -d -1 -p message -e 32 -c 2 -a 0 -i 11 -k RTR
r -t 1.280713125 -s 4 -d -1 -p message -e 32 -c 2 -a 0 -i 11 -k RTR
r -t 1.280713129 -s 11 -d -1 -p message -e 32 -c 2 -a 0 -i 11 -k RTR
r -t 1.280713181 -s 2 -d -1 -p message -e 32 -c 2 -a 0 -i 11 -k RTR
+ -t 1.287862276 -s 12 -d -1 -p message -e 32 -c 2 -a 0 -i 12 -k RTR 
- -t 1.287862276 -s 12 -d -1 -p message -e 32 -c 2 -a 0 -i 12 -k RTR
h -t 1.287862276 -s 12 -d -1 -p message -e 32 -c 2 -a 0 -i 12 -k RTR
+ -t 1.288177276 -s 12 -d -1 -p message -e 90 -c 2 -a 0 -i 12 -k MAC 
- -t 1.288177276 -s 12 -d -1 -p message -e 90 -c 2 -a 0 -i 12 -k MAC
h -t 1.288177276 -s 12 -d -1 -p message -e 90 -c 2 -a 0 -i 12 -k MAC
r -t 1.288897618 -s 15 -d -1 -p message -e 32 -c 2 -a 0 -i 12 -k MAC
r -t 1.288897671 -s 6 -d -1 -p message -e 32 -c 2 -a 0 -i 12 -k MAC
r -t 1.288897694 -s 14 -d -1 -p message -e 32 -c 2 -a 0 -i 12 -k MAC
r -t 1.288897767 -s 13 -d -1 -p message -e 32 -c 2 -a 0 -i 12 -k MAC
r -t 1.288897792 -s 11 -d -1 -p message -e 32 -c 2 -a 0 -i 12 -k MAC
r -t 1.288897898 -s 4 -d -1 -p message -e 32 -c 2 -a 0 -i 12 -k MAC
r -t 1.288898048 -s 3 -d -1 -p message -e 32 -c 2 -a 0 -i 12 -k MAC
r -t 1.288898066 -s 10 -d -1 -p message -e 32 -c 2 -a 0 -i 12 -k MAC
r -t 1.288922618 -s 15 -d -1 -p message -e 32 -c 2 -a 0 -i 12 -k RTR
r -t 1.288922671 -s 6 -d -1 -p message -e 32 -c 2 -a 0 -i 12 -k RTR
r -t 1.288922694 -s 14 -d -1 -p message -e 32 -c 2 -a 0 -i 12 -k RTR
r -t 1.288922767 -s 13 -d -1 -p message -e 32 -c 2 -a 0 -i 12 -k RTR
r -t 1.288922792 -s 11 -d -1 -p message -e 32 -c 2 -a 0 -i 12 -k RTR
r -t 1.288922898 -s 4 -d -1 -p message -e 32 -c 2 -a 0 -i 12 -k RTR
r -t 1.288923048 -s 3 -d -1 -p message -e 32 -c 2 -a 0 -i 12 -k RTR
r -t 1.288923066 -s 10 -d -1 -p message -e 32 -c 2 -a 0 -i 12 -k RTR
+ -t 1.599224476 -s 3 -d -1 -p message -e 32 -c 2 -a 0 -i 13 -k RTR 
- -t 1.599224476 -s 3 -d -1 -p message -e 32 -c 2 -a 0 -i 13 -k RTR
h -t 1.599224476 -s 3 -d -1 -p message -e 32 -c 2 -a 0 -i 13 -k RTR
+ -t 1.599759476 -s 3 -d -1 -p message -e 90 -c 2 -a 0 -i 13 -k MAC 
- -t 1.599759476 -s 3 -d -1 -p message -e 90 -c 2 -a 0 -i 13 -k MAC
h -t 1.599759476 -s 3 -d -1 -p message -e 90 -c 2 -a 0 -i 13 -k MAC
r -t 1.600479810 -s 7 -d -1 -p message -e 32 -c 2 -a 0 -i 13 -k MAC
r -t 1.600479847 -s 4 -d -1 -p message -e 32 -c 2 -a 0 -i 13 -k MAC
r -t 1.600479849 -s 1 -d -1 -p message -e 32 -c 2 -a 0 -i 13 -k MAC
r -t 1.600479870 -s 6 -d -1 -p message -e 32 -c 2 -a 0 -i 13 -k MAC
r -t 1.600479927 -s 2 -d -1 -p message -e 32 -c 2 -a 0 -i 13 -k MAC
r -t 1.600480091 -s 8 -d -1 -p message -e 32 -c 2 -a 0 -i 13 -k MAC
r -t 1.600480092 -s 9 -d -1 -p message -e 32 -c 2 -a 0 -i 13 -k MAC
r -t 1.600480179 -s 5 -d -1 -p message -e 32 -c 2 -a 0 -i 13 -k MAC
r -t 1.600480191 -s 10 -d -1 -p message -e 32 -c 2 -a 0 -i 13 -k MAC
r -t 1.600480220 -s 0 -d -1 -p message -e 32 -c 2 -a 0 -i 13 -k MAC
r -t 1.600480223 -s 11 -d -1 -p message -e 32 -c 2 -a 0 -i 13 -k MAC
r -t 1.600480243 -s 12 -d -1 -p message -e 32 -c 2 -a 0 -i 13 -k MAC
r -t 1.600480270 -s 13 -d -1 -p message -e 32 -c 2 -a 0 -i 13 -k MAC
r -t 1.600504810 -s 7 -d -1 -p message -e 32 -c 2 -a 0 -i 13 -k RTR
r -t 1.600504847 -s 4 -d -1 -p message -e 32 -c 2 -a 0 -i 13 -k RTR
r -t 1.600504849 -s 1 -d -1 -p message -e 32 -c 2 -a 0 -i 13 -k RTR
r -t 1.600504870 -s 6 -d -1 -p message -e 32 -c 2 -a 0 -i 13 -k RTR
r -t 1.600504927 -s 2 -d -1 -p message -e 32 -c 2 -a 0 -i 13 -k RTR
r -t 1.600505091 -s 8 -d -1 -p message -e 32 -c 2 -a 0 -i 13 -k RTR
r -t 1.600505092 -s 9 -d -1 -p message -e 32 -c 2 -a 0 -i 13 -k RTR
r -t 1.600505179 -s 5 -d -1 -p message -e 32 -c 2 -a 0 -i 13 -k RTR
r -t 1.600505191 -s 10 -d -1 -p message -e 32 -c 2 -a 0 -i 13 -k RTR
r -t 1.600505220 -s 0 -d -1 -p message -e 32 -c 2 -a 0 -i 13 -k RTR
r -t 1.600505223 -s 11 -d -1 -p message -e 32 -c 2 -a 0 -i 13 -k RTR
r -t 1.600505243 -s 12 -d -1 -p message -e 32 -c 2 -a 0 -i 13 -k RTR
r -t 1.600505270 -s 13 -d -1 -p message -e 32 -c 2 -a 0 -i 13 -k RTR
+ -t 1.638281088 -s 5 -d -1 -p message -e 32 -c 2 -a 0 -i 14 -k RTR 
- -t 1.638281088 -s 5 -d -1 -p message -e 32 -c 2 -a 0 -i 14 -k RTR
h -t 1.638281088 -s 5 -d -1 -p message -e 32 -c 2 -a 0 -i 14 -k RTR
+ -t 1.638436088 -s 5 -d -1 -p message -e 90 -c 2 -a 0 -i 14 -k MAC 
- -t 1.638436088 -s 5 -d -1 -p message -e 90 -c 2 -a 0 -i 14 -k MAC
h -t 1.638436088 -s 5 -d -1 -p message -e 90 -c 2 -a 0 -i 14 -k MAC
r -t 1.639156463 -s 2 -d -1 -p message -e 32 -c 2 -a 0 -i 14 -k MAC
r -t 1.639156478 -s 4 -d -1 -p message -e 32 -c 2 -a 0 -i 14 -k MAC
r -t 1.639156607 -s 13 -d -1 -p message -e 32 -c 2 -a 0 -i 14 -k MAC
r -t 1.639156698 -s 0 -d -1 -p message -e 32 -c 2 -a 0 -i 14 -k MAC
r -t 1.639156792 -s 3 -d -1 -p message -e 32 -c 2 -a 0 -i 14 -k MAC
r -t 1.639156897 -s 6 -d -1 -p message -e 32 -c 2 -a 0 -i 14 -k MAC
r -t 1.639156916 -s 1 -d -1 -p message -e 32 -c 2 -a 0 -i 14 -k MAC
r -t 1.639181463 -s 2 -d -1 -p message -e 32 -c 2 -a 0 -i 14 -k RTR
r -t 1.639181478 -s 4 -d -1 -p message -e 32 -c 2 -a 0 -i 14 -k RTR
r -t 1.639181607 -s 13 -d -1 -p message -e 32 -c 2 -a 0 -i 14 -k RTR
r -t 1.639181698 -s 0 -d -1 -p message -e 32 -c 2 -a 0 -i 14 -k RTR
r -t 1.639181792 -s 3 -d -1 -p message -e 32 -c 2 -a 0 -i 14 -k RTR
r -t 1.639181897 -s 6 -d -1 -p message -e 32 -c 2 -a 0 -i 14 -k RTR
r -t 1.639181916 -s 1 -d -1 -p message -e 32 -c 2 -a 0 -i 14 -k RTR
+ -t 1.680791075 -s 9 -d -1 -p message -e 32 -c 2 -a 0 -i 15 -k RTR 
- -t 1.680791075 -s 9 -d -1 -p message -e 32 -c 2 -a 0 -i 15 -k RTR
h -t 1.680791075 -s 9 -d -1 -p message -e 32 -c 2 -a 0 -i 15 -k RTR
+ -t 1.681206075 -s 9 -d -1 -p message -e 90 -c 2 -a 0 -i 15 -k MAC 
- -t 1.681206075 -s 9 -d -1 -p message -e 90 -c 2 -a 0 -i 15 -k MAC
h -t 1.681206075 -s 9 -d -1 -p message -e 90 -c 2 -a 0 -i 15 -k MAC
r -t 1.681926385 -s 7 -d -1 -p message -e 32 -c 2 -a 0 -i 15 -k MAC
r -t 1.681926396 -s 8 -d -1 -p message -e 32 -c 2 -a 0 -i 15 -k MAC
r -t 1.681926413 -s 10 -d -1 -p message -e 32 -c 2 -a 0 -i 15 -k MAC
r -t 1.681926689 -s 3 -d -1 -p message -e 32 -c 2 -a 0 -i 15 -k MAC
r -t 1.681926691 -s 11 -d -1 -p message -e 32 -c 2 -a 0 -i 15 -k MAC
r -t 1.681926738 -s 6 -d -1 -p message -e 32 -c 2 -a 0 -i 15 -k MAC
r -t 1.681926823 -s 1 -d -1 -p message -e 32 -c 2 -a 0 -i 15 -k MAC
r -t 1.681951385 -s 7 -d -1 -p message -e 32 -c 2 -a 0 -i 15 -k RTR
r -t 1.681951396 -s 8 -d -1 -p message -e 32 -c 2 -a 0 -i 15 -k RTR
r -t 1.681951413 -s 10 -d -1 -p message -e 32 -c 2 -a 0 -i 15 -k RTR
r -t 1.681951689 -s 3 -d -1 -p message -e 32 -c 2 -a 0 -i 15 -k RTR
r -t 1.681951691 -s 11 -d -1 -p message -e 32 -c 2 -a 0 -i 15 -k RTR
r -t 1.681951738 -s 6 -d -1 -p message -e 32 -c 2 -a 0 -i 15 -k RTR
r -t 1.681951823 -s 1 -d -1 -p message -e 32 -c 2 -a 0 -i 15 -k RTR
+ -t 1.725316520 -s 14 -d -1 -p message -e 32 -c 2 -a 0 -i 16 -k RTR 
- -t 1.725316520 -s 14 -d -1 -p message -e 32 -c 2 -a 0 -i 16 -k RTR
h -t 1.725316520 -s 14 -d -1 -p message -e 32 -c 2 -a 0 -i 16 -k RTR
+ -t 1.725971520 -s 14 -d -1 -p message -e 90 -c 2 -a 0 -i 16 -k MAC 
- -t 1.725971520 -s 14 -d -1 -p message -e 90 -c 2 -a 0 -i 16 -k MAC
h -t 1.725971520 -s 14 -d -1 -p message -e 90 -c 2 -a 0 -i 16 -k MAC
r -t 1.726691876 -s 11 -d -1 -p message -e 32 -c 2 -a 0 -i 16 -k MAC
r -t 1.726691938 -s 12 -d -1 -p message -e 32 -c 2 -a 0 -i 16 -k MAC
r -t 1.726692132 -s 6 -d -1 -p message -e 32 -c 2 -a 0 -i 16 -k MAC
r -t 1.726692179 -s 10 -d -1 -p message -e 32 -c 2 -a 0 -i 16 -k MAC
r -t 1.726692208 -s 15 -d -1 -p message -e 32 -c 2 -a 0 -i 16 -k MAC
r -t 1.726716876 -s 11 -d -1 -p message -e 32 -c 2 -a 0 -i 16 -k RTR
r -t 1.726716938 -s 12 -d -1 -p message -e 32 -c 2 -a 0 -i 16 -k RTR
r -t 1.726717132 -s 6 -d -1 -p message -e 32 -c 2 -a 0 -i 16 -k RTR
r -t 1.726717179 -s 10 -d -1 -p message -e 32 -c 2 -a 0 -i 16 -k RTR
r -t 1.726717208 -s 15 -d -1 -p message -e 32 -c 2 -a 0 -i 16 -k RTR
+ -t 2.000000000 -s 13 -d -1 -p tcp -e 40 -c 2 -a 0 -i 17 -k AGT 
- -t 2.000000000 -s 13 -d -1 -p tcp -e 40 -c 2 -a 0 -i 17 -k AGT
h -t 2.000000000 -s 13 -d -1 -p tcp -e 40 -c 2 -a 0 -i 17 -k AGT
+ -t 4.000000000 -s 5 -d -1 -p tcp -e 40 -c 2 -a 0 -i 18 -k AGT 
- -t 4.000000000 -s 5 -d -1 -p tcp -e 40 -c 2 -a 0 -i 18 -k AGT
h -t 4.000000000 -s 5 -d -1 -p tcp -e 40 -c 2 -a 0 -i 18 -k AGT
n -t 5.000000 -s 12 -x 423.000000 -y 134.000000 -U -11.206187 -V -16.565668 -T 2.052438
+ -t 5.000000000 -s 13 -d -1 -p tcp -e 40 -c 2 -a 0 -i 19 -k AGT 
- -t 5.000000000 -s 13 -d -1 -p tcp -e 40 -c 2 -a 0 -i 19 -k AGT
h -t 5.000000000 -s 13 -d -1 -p tcp -e 40 -c 2 -a 0 -i 19 -k AGT
n -t 10.000000 -s 3 -x 465.840739 -y 319.824571 -U 23.776123 -V 18.294699 -T 9.848505
W -t 10.0
