s -t 0.030157374 -Hs 0 -Hd -1 -Ni 0 -Nx 198.00 -Ny 470.00 -Nz 0.00 -Ne 50.000000 -Nl RTR -Nw --- -Ma 0 -Md 0 -Ms 0 -Mt 0 -Is 0.255 -Id -1.255 -It message -Il 32 -If 0 -Ii 0 -Iv 32 
s -t 0.030552374 -Hs 0 -Hd -1 -Ni 0 -Nx 198.00 -Ny 470.00 -Nz 0.00 -Ne 50.000000 -Nl MAC -Nw --- -Ma 0 -Md ffffffff -Ms 0 -Mt 800 -Is 0.255 -Id -1.255 -It message -Il 90 -If 0 -Ii 0 -Iv 32 
N -t 0.030553 -n 2 -e 49.981164
N -t 0.030553 -n 1 -e 49.981164
N -t 0.030553 -n 5 -e 49.981164
N -t 0.030553 -n 3 -e 49.981164
N -t 0.030553 -n 4 -e 49.981164
N -t 0.030553 -n 7 -e 49.981164
N -t 0.030553 -n 6 -e 49.981164
N -t 0.030553 -n 13 -e 49.981164
N -t 0.030553 -n 8 -e 49.981164
N -t 0.030554 -n 9 -e 49.981164
N -t 0.030554 -n 12 -e 49.981164
N -t 0.030554 -n 15 -e 49.981164
N -t 0.030554 -n 10 -e 49.981164
N -t 0.030554 -n 11 -e 49.981164
N -t 0.030554 -n 14 -e 49.981164
r -t 0.031272736 -Hs 2 -Hd -1 -Ni 2 -Nx 259.00 -Ny 380.00 -Nz 0.00 -Ne 49.981164 -Nl MAC -Nw --- -Ma 0 -Md ffffffff -Ms 0 -Mt 800 -Is 0.255 -Id -1.255 -It message -Il 32 -If 0 -Ii 0 -Iv 32 
r -t 0.031272927 -Hs 1 -Hd -1 -Ni 1 -Nx 364.00 -Ny 470.00 -Nz 0.00 -Ne 49.981164 -Nl MAC -Nw --- -Ma 0 -Md ffffffff -Ms 0 -Mt 800 -Is 0.255 -Id -1.255 -It message -Il 32 -If 0 -Ii 0 -Iv 32 
r -t 0.031272984 -Hs 5 -Hd -1 -Ni 5 -Nx 196.00 -Ny 287.00 -Nz 0.00 -Ne 49.981164 -Nl MAC -Nw --- -Ma 0 -Md ffffffff -Ms 0 -Mt 800 -Is 0.255 -Id -1.255 -It message -Il 32 -If 0 -Ii 0 -Iv 32 
r -t 0.031273097 -Hs 3 -Hd -1 -Ni 3 -Nx 388.00 -Ny 365.00 -Nz 0.00 -Ne 49.981164 -Nl MAC -Nw --- -Ma 0 -Md ffffffff -Ms 0 -Mt 800 -Is 0.255 -Id -1.255 -It message -Il 32 -If 0 -Ii 0 -Iv 32 
r -t 0.031273100 -Hs 4 -Hd -1 -Ni 4 -Nx 313.00 -Ny 285.00 -Nz 0.00 -Ne 49.981164 -Nl MAC -Nw --- -Ma 0 -Md ffffffff -Ms 0 -Mt 800 -Is 0.255 -Id -1.255 -It message -Il 32 -If 0 -Ii 0 -Iv 32 
r -t 0.031297736 -Hs 2 -Hd -1 -Ni 2 -Nx 259.00 -Ny 380.00 -Nz 0.00 -Ne 49.981164 -Nl RTR -Nw --- -Ma 0 -Md ffffffff -Ms 0 -Mt 800 -Is 0.255 -Id -1.255 -It message -Il 32 -If 0 -Ii 0 -Iv 32 
r -t 0.031297927 -Hs 1 -Hd -1 -Ni 1 -Nx 364.00 -Ny 470.00 -Nz 0.00 -Ne 49.981164 -Nl RTR -Nw --- -Ma 0 -Md ffffffff -Ms 0 -Mt 800 -Is 0.255 -Id -1.255 -It message -Il 32 -If 0 -Ii 0 -Iv 32 
r -t 0.031297984 -Hs 5 -Hd -1 -Ni 5 -Nx 196.00 -Ny 287.00 -Nz 0.00 -Ne 49.981164 -Nl RTR -Nw --- -Ma 0 -Md ffffffff -Ms 0 -Mt 800 -Is 0.255 -Id -1.255 -It message -Il 32 -If 0 -Ii 0 -Iv 32 
r -t 0.031298097 -Hs 3 -Hd -1 -Ni 3 -Nx 388.00 -Ny 365.00 -Nz 0.00 -Ne 49.981164 -Nl RTR -Nw --- -Ma 0 -Md ffffffff -Ms 0 -Mt 800 -Is 0.255 -Id -1.255 -It message -Il 32 -If 0 -Ii 0 -Iv 32 
r -t 0.031298100 -Hs 4 -Hd -1 -Ni 4 -Nx 313.00 -Ny 285.00 -Nz 0.00 -Ne 49.981164 -Nl RTR -Nw --- -Ma 0 -Md ffffffff -Ms 0 -Mt 800 -Is 0.255 -Id -1.255 -It message -Il 32 -If 0 -Ii 0 -Iv 32 
s -t 0.088169995 -Hs 11 -Hd -1 -Ni 11 -Nx 558.00 -Ny 210.00 -Nz 0.00 -Ne 49.981164 -Nl RTR -Nw --- -Ma 0 -Md 0 -Ms 0 -Mt 0 -Is 11.255 -Id -1.255 -It message -Il 32 -If 0 -Ii 1 -Iv 32 
s -t 0.088484995 -Hs 11 -Hd -1 -Ni 11 -Nx 558.00 -Ny 210.00 -Nz 0.00 -Ne 49.981164 -Nl MAC -Nw --- -Ma 0 -Md ffffffff -Ms b -Mt 800 -Is 11.255 -Id -1.255 -It message -Il 90 -If 0 -Ii 1 -Iv 32 
N -t 0.088485 -n 10 -e 49.946333
N -t 0.088485 -n 14 -e 49.946333
N -t 0.088485 -n 6 -e 49.946333
N -t 0.088486 -n 12 -e 49.946333
N -t 0.088486 -n 9 -e 49.946333
N -t 0.088486 -n 7 -e 49.946333
N -t 0.088486 -n 3 -e 49.946333
N -t 0.088486 -n 4 -e 49.946332
N -t 0.088486 -n 15 -e 49.946332
N -t 0.088486 -n 8 -e 49.946332
N -t 0.088486 -n 13 -e 49.946332
N -t 0.088486 -n 1 -e 49.946332
N -t 0.088486 -n 2 -e 49.946332
N -t 0.088486 -n 5 -e 49.946332
N -t 0.088486 -n 0 -e 49.946188
r -t 0.089205307 -Hs 10 -Hd -1 -Ni 10 -Nx 597.00 -Ny 295.00 -Nz 0.00 -Ne 49.946333 -Nl MAC -Nw --- -Ma 0 -Md ffffffff -Ms b -Mt 800 -Is 11.255 -Id -1.255 -It message -Il 32 -If 0 -Ii 1 -Iv 32 
r -t 0.089205351 -Hs 14 -Hd -1 -Ni 14 -Nx 545.00 -Ny 104.00 -Nz 0.00 -Ne 49.946333 -Nl MAC -Nw --- -Ma 0 -Md ffffffff -Ms b -Mt 800 -Is 11.255 -Id -1.255 -It message -Il 32 -If 0 -Ii 1 -Iv 32 
r -t 0.089205425 -Hs 6 -Hd -1 -Ni 6 -Nx 436.00 -Ny 252.00 -Nz 0.00 -Ne 49.946333 -Nl MAC -Nw --- -Ma 0 -Md ffffffff -Ms b -Mt 800 -Is 11.255 -Id -1.255 -It message -Il 32 -If 0 -Ii 1 -Iv 32 
r -t 0.089205511 -Hs 12 -Hd -1 -Ni 12 -Nx 423.00 -Ny 134.00 -Nz 0.00 -Ne 49.946333 -Nl MAC -Nw --- -Ma 0 -Md ffffffff -Ms b -Mt 800 -Is 11.255 -Id -1.255 -It message -Il 32 -If 0 -Ii 1 -Iv 32 
r -t 0.089205611 -Hs 9 -Hd -1 -Ni 9 -Nx 575.00 -Ny 394.00 -Nz 0.00 -Ne 49.946333 -Nl MAC -Nw --- -Ma 0 -Md ffffffff -Ms b -Mt 800 -Is 11.255 -Id -1.255 -It message -Il 32 -If 0 -Ii 1 -Iv 32 
r -t 0.089205694 -Hs 7 -Hd -1 -Ni 7 -Nx 483.00 -Ny 406.00 -Nz 0.00 -Ne 49.946333 -Nl MAC -Nw --- -Ma 0 -Md ffffffff -Ms b -Mt 800 -Is 11.255 -Id -1.255 -It message -Il 32 -If 0 -Ii 1 -Iv 32 
r -t 0.089205762 -Hs 3 -Hd -1 -Ni 3 -Nx 388.00 -Ny 365.00 -Nz 0.00 -Ne 49.946333 -Nl MAC -Nw --- -Ma 0 -Md ffffffff -Ms b -Mt 800 -Is 11.255 -Id -1.255 -It message -Il 32 -If 0 -Ii 1 -Iv 32 
r -t 0.089230307 -Hs 10 -Hd -1 -Ni 10 -Nx 597.00 -Ny 295.00 -Nz 0.00 -Ne 49.946333 -Nl RTR -Nw --- -Ma 0 -Md ffffffff -Ms b -Mt 800 -Is 11.255 -Id -1.255 -It message -Il 32 -If 0 -Ii 1 -Iv 32 
r -t 0.089230351 -Hs 14 -Hd -1 -Ni 14 -Nx 545.00 -Ny 104.00 -Nz 0.00 -Ne 49.946333 -Nl RTR -Nw --- -Ma 0 -Md ffffffff -Ms b -Mt 800 -Is 11.255 -Id -1.255 -It message -Il 32 -If 0 -Ii 1 -Iv 32 
r -t 0.089230425 -Hs 6 -Hd -1 -Ni 6 -Nx 436.00 -Ny 252.00 -Nz 0.00 -Ne 49.946333 -Nl RTR -Nw --- -Ma 0 -Md ffffffff -Ms b -Mt 800 -Is 11.255 -Id -1.255 -It message -Il 32 -If 0 -Ii 1 -Iv 32 
r -t 0.089230511 -Hs 12 -Hd -1 -Ni 12 -Nx 423.00 -Ny 134.00 -Nz 0.00 -Ne 49.946333 -Nl RTR -Nw --- -Ma 0 -Md ffffffff -Ms b -Mt 800 -Is 11.255 -Id -1.255 -It message -Il 32 -If 0 -Ii 1 -Iv 32 
r -t 0.089230611 -Hs 9 -Hd -1 -Ni 9 -Nx 575.00 -Ny 394.00 -Nz 0.00 -Ne 49.946333 -Nl RTR -Nw --- -Ma 0 -Md ffffffff -Ms b -Mt 800 -Is 11.255 -Id -1.255 -It message -Il 32 -If 0 -Ii 1 -Iv 32 
r -t 0.089230694 -Hs 7 -Hd -1 -Ni 7 -Nx 483.00 -Ny 406.00 -Nz 0.00 -Ne 49.946333 -Nl RTR -Nw --- -Ma 0 -Md ffffffff -Ms b -Mt 800 -Is 11.255 -Id -1.255 -It message -Il 32 -If 0 -Ii 1 -Iv 32 
r -t 0.089230762 -Hs 3 -Hd -1 -Ni 3 -Nx 388.00 -Ny 365.00 -Nz 0.00 -Ne 49.946333 -Nl RTR -Nw --- -Ma 0 -Md ffffffff -Ms b -Mt 800 -Is 11.255 -Id -1.255 -It message -Il 32 -If 0 -Ii 1 -Iv 32 
s -t 0.183168411 -Hs 1 -Hd -1 -Ni 1 -Nx 364.00 -Ny 470.00 -Nz 0.00 -Ne 49.946332 -Nl RTR -Nw --- -Ma 0 -Md 0 -Ms 0 -Mt 0 -Is 1.255 -Id -1.255 -It message -Il 32 -If 0 -Ii 2 -Iv 32 
s -t 0.183643411 -Hs 1 -Hd -1 -Ni 1 -Nx 364.00 -Ny 470.00 -Nz 0.00 -Ne 49.946332 -Nl MAC -Nw --- -Ma 0 -Md ffffffff -Ms 1 -Mt 800 -Is 1.255 -Id -1.255 -It message -Il 90 -If 0 -Ii 2 -Iv 32 
N -t 0.183644 -n 3 -e 49.889166
N -t 0.183644 -n 7 -e 49.889166
N -t 0.183644 -n 2 -e 49.889166
N -t 0.183644 -n 0 -e 49.889022
N -t 0.183644 -n 8 -e 49.889166
N -t 0.183644 -n 4 -e 49.889166
N -t 0.183644 -n 9 -e 49.889166
N -t 0.183644 -n 6 -e 49.889165
N -t 0.183644 -n 5 -e 49.889165
N -t 0.183644 -n 10 -e 49.889165
N -t 0.183644 -n 11 -e 49.889021
N -t 0.183645 -n 13 -e 49.889165
N -t 0.183645 -n 12 -e 49.889165
N -t 0.183645 -n 15 -e 49.889165
N -t 0.183645 -n 14 -e 49.889165
r -t 0.184363770 -Hs 3 -Hd -1 -Ni 3 -Nx 388.00 -Ny 365.00 -Nz 0.00 -Ne 49.889166 -Nl MAC -Nw --- -Ma 0 -Md ffffffff -Ms 1 -Mt 800 -Is 1.255 -Id -1.255 -It message -Il 32 -If 0 -Ii 2 -Iv 32 
r -t 0.184363861 -Hs 7 -Hd -1 -Ni 7 -Nx 483.00 -Ny 406.00 -Nz 0.00 -Ne 49.889166 -Nl MAC -Nw --- -Ma 0 -Md ffffffff -Ms 1 -Mt 800 -Is 1.255 -Id -1.255 -It message -Il 32 -If 0 -Ii 2 -Iv 32 
r -t 0.184363872 -Hs 2 -Hd -1 -Ni 2 -Nx 259.00 -Ny 380.00 -Nz 0.00 -Ne 49.889166 -Nl MAC -Nw --- -Ma 0 -Md ffffffff -Ms 1 -Mt 800 -Is 1.255 -Id -1.255 -It message -Il 32 -If 0 -Ii 2 -Iv 32 
r -t 0.184363964 -Hs 0 -Hd -1 -Ni 0 -Nx 198.00 -Ny 470.00 -Nz 0.00 -Ne 49.889022 -Nl MAC -Nw --- -Ma 0 -Md ffffffff -Ms 1 -Mt 800 -Is 1.255 -Id -1.255 -It message -Il 32 -If 0 -Ii 2 -Iv 32 
r -t 0.184363979 -Hs 8 -Hd -1 -Ni 8 -Nx 534.00 -Ny 481.00 -Nz 0.00 -Ne 49.889166 -Nl MAC -Nw --- -Ma 0 -Md ffffffff -Ms 1 -Mt 800 -Is 1.255 -Id -1.255 -It message -Il 32 -If 0 -Ii 2 -Iv 32 
r -t 0.184364051 -Hs 4 -Hd -1 -Ni 4 -Nx 313.00 -Ny 285.00 -Nz 0.00 -Ne 49.889166 -Nl MAC -Nw --- -Ma 0 -Md ffffffff -Ms 1 -Mt 800 -Is 1.255 -Id -1.255 -It message -Il 32 -If 0 -Ii 2 -Iv 32 
r -t 0.184364159 -Hs 9 -Hd -1 -Ni 9 -Nx 575.00 -Ny 394.00 -Nz 0.00 -Ne 49.889166 -Nl MAC -Nw --- -Ma 0 -Md ffffffff -Ms 1 -Mt 800 -Is 1.255 -Id -1.255 -It message -Il 32 -If 0 -Ii 2 -Iv 32 
r -t 0.184364176 -Hs 6 -Hd -1 -Ni 6 -Nx 436.00 -Ny 252.00 -Nz 0.00 -Ne 49.889165 -Nl MAC -Nw --- -Ma 0 -Md ffffffff -Ms 1 -Mt 800 -Is 1.255 -Id -1.255 -It message -Il 32 -If 0 -Ii 2 -Iv 32 
r -t 0.184364239 -Hs 5 -Hd -1 -Ni 5 -Nx 196.00 -Ny 287.00 -Nz 0.00 -Ne 49.889165 -Nl MAC -Nw --- -Ma 0 -Md ffffffff -Ms 1 -Mt 800 -Is 1.255 -Id -1.255 -It message -Il 32 -If 0 -Ii 2 -Iv 32 
r -t 0.184388770 -Hs 3 -Hd -1 -Ni 3 -Nx 388.00 -Ny 365.00 -Nz 0.00 -Ne 49.889166 -Nl RTR -Nw --- -Ma 0 -Md ffffffff -Ms 1 -Mt 800 -Is 1.255 -Id -1.255 -It message -Il 32 -If 0 -Ii 2 -Iv 32 
r -t 0.184388861 -Hs 7 -Hd -1 -Ni 7 -Nx 483.00 -Ny 406.00 -Nz 0.00 -Ne 49.889166 -Nl RTR -Nw --- -Ma 0 -Md ffffffff -Ms 1 -Mt 800 -Is 1.255 -Id -1.255 -It message -Il 32 -If 0 -Ii 2 -Iv 32 
r -t 0.184388872 -Hs 2 -Hd -1 -Ni 2 -Nx 259.00 -Ny 380.00 -Nz 0.00 -Ne 49.889166 -Nl RTR -Nw --- -Ma 0 -Md ffffffff -Ms 1 -Mt 800 -Is 1.255 -Id -1.255 -It message -Il 32 -If 0 -Ii 2 -Iv 32 
r -t 0.184388964 -Hs 0 -Hd -1 -Ni 0 -Nx 198.00 -Ny 470.00 -Nz 0.00 -Ne 49.889022 -Nl RTR -Nw --- -Ma 0 -Md ffffffff -Ms 1 -Mt 800 -Is 1.255 -Id -1.255 -It message -Il 32 -If 0 -Ii 2 -Iv 32 
r -t 0.184388979 -Hs 8 -Hd -1 -Ni 8 -Nx 534.00 -Ny 481.00 -Nz 0.00 -Ne 49.889166 -Nl RTR -Nw --- -Ma 0 -Md ffffffff -Ms 1 -Mt 800 -Is 1.255 -Id -1.255 -It message -Il 32 -If 0 -Ii 2 -Iv 32 
r -t 0.184389051 -Hs 4 -Hd -1 -Ni 4 -Nx 313.00 -Ny 285.00 -Nz 0.00 -Ne 49.889166 -Nl RTR -Nw --- -Ma 0 -Md ffffffff -Ms 1 -Mt 800 -Is 1.255 -Id -1.255 -It message -Il 32 -If 0 -Ii 2 -Iv 32 
r -t 0.184389159 -Hs 9 -Hd -1 -Ni 9 -Nx 575.00 -Ny 394.00 -Nz 0.00 -Ne 49.889166 -Nl RTR -Nw --- -Ma 0 -Md ffffffff -Ms 1 -Mt 800 -Is 1.255 -Id -1.255 -It message -Il 32 -If 0 -Ii 2 -Iv 32 
r -t 0.184389176 -Hs 6 -Hd -1 -Ni 6 -Nx 436.00 -Ny 252.00 -Nz 0.00 -Ne 49.889165 -Nl RTR -Nw --- -Ma 0 -Md ffffffff -Ms 1 -Mt 800 -Is 1.255 -Id -1.255 -It message -Il 32 -If 0 -Ii 2 -Iv 32 
r -t 0.184389239 -Hs 5 -Hd -1 -Ni 5 -Nx 196.00 -Ny 287.00 -Nz 0.00 -Ne 49.889165 -Nl RTR -Nw --- -Ma 0 -Md ffffffff -Ms 1 -Mt 800 -Is 1.255 -Id -1.255 -It message -Il 32 -If 0 -Ii 2 -Iv 32 
s -t 0.230028753 -Hs 13 -Hd -1 -Ni 13 -Nx 277.00 -Ny 154.00 -Nz 0.00 -Ne 49.889165 -Nl RTR -Nw --- -Ma 0 -Md 0 -Ms 0 -Mt 0 -Is 13.255 -Id -1.255 -It message -Il 32 -If 0 -Ii 3 -Iv 32 
s -t 0.230403753 -Hs 13 -Hd -1 -Ni 13 -Nx 277.00 -Ny 154.00 -Nz 0.00 -Ne 49.889165 -Nl MAC -Nw --- -Ma 0 -Md ffffffff -Ms d -Mt 800 -Is 13.255 -Id -1.255 -It message -Il 90 -If 0 -Ii 3 -Iv 32 
N -t 0.230404 -n 15 -e 49.861038
N -t 0.230404 -n 4 -e 49.861037
N -t 0.230404 -n 12 -e 49.861037
N -t 0.230404 -n 5 -e 49.861037
N -t 0.230404 -n 6 -e 49.861037
N -t 0.230405 -n 2 -e 49.861037
N -t 0.230405 -n 3 -e 49.861037
N -t 0.230405 -n 14 -e 49.861037
N -t 0.230405 -n 11 -e 49.860893
N -t 0.230405 -n 7 -e 49.861037
N -t 0.230405 -n 0 -e 49.860893
N -t 0.230405 -n 1 -e 49.860893
N -t 0.230405 -n 10 -e 49.861037
N -t 0.230405 -n 9 -e 49.861037
N -t 0.230405 -n 8 -e 49.861037
r -t 0.231124100 -Hs 15 -Hd -1 -Ni 15 -Nx 341.00 -Ny 72.00 -Nz 0.00 -Ne 49.861038 -Nl MAC -Nw --- -Ma 0 -Md ffffffff -Ms d -Mt 800 -Is 13.255 -Id -1.255 -It message -Il 32 -If 0 -Ii 3 -Iv 32 
r -t 0.231124206 -Hs 4 -Hd -1 -Ni 4 -Nx 313.00 -Ny 285.00 -Nz 0.00 -Ne 49.861037 -Nl MAC -Nw --- -Ma 0 -Md ffffffff -Ms d -Mt 800 -Is 13.255 -Id -1.255 -It message -Il 32 -If 0 -Ii 3 -Iv 32 
r -t 0.231124245 -Hs 12 -Hd -1 -Ni 12 -Nx 423.00 -Ny 134.00 -Nz 0.00 -Ne 49.861037 -Nl MAC -Nw --- -Ma 0 -Md ffffffff -Ms d -Mt 800 -Is 13.255 -Id -1.255 -It message -Il 32 -If 0 -Ii 3 -Iv 32 
r -t 0.231124273 -Hs 5 -Hd -1 -Ni 5 -Nx 196.00 -Ny 287.00 -Nz 0.00 -Ne 49.861037 -Nl MAC -Nw --- -Ma 0 -Md ffffffff -Ms d -Mt 800 -Is 13.255 -Id -1.255 -It message -Il 32 -If 0 -Ii 3 -Iv 32 
r -t 0.231124376 -Hs 6 -Hd -1 -Ni 6 -Nx 436.00 -Ny 252.00 -Nz 0.00 -Ne 49.861037 -Nl MAC -Nw --- -Ma 0 -Md ffffffff -Ms d -Mt 800 -Is 13.255 -Id -1.255 -It message -Il 32 -If 0 -Ii 3 -Iv 32 
r -t 0.231124509 -Hs 2 -Hd -1 -Ni 2 -Nx 259.00 -Ny 380.00 -Nz 0.00 -Ne 49.861037 -Nl MAC -Nw --- -Ma 0 -Md ffffffff -Ms d -Mt 800 -Is 13.255 -Id -1.255 -It message -Il 32 -If 0 -Ii 3 -Iv 32 
r -t 0.231124548 -Hs 3 -Hd -1 -Ni 3 -Nx 388.00 -Ny 365.00 -Nz 0.00 -Ne 49.861037 -Nl MAC -Nw --- -Ma 0 -Md ffffffff -Ms d -Mt 800 -Is 13.255 -Id -1.255 -It message -Il 32 -If 0 -Ii 3 -Iv 32 
r -t 0.231149100 -Hs 15 -Hd -1 -Ni 15 -Nx 341.00 -Ny 72.00 -Nz 0.00 -Ne 49.861038 -Nl RTR -Nw --- -Ma 0 -Md ffffffff -Ms d -Mt 800 -Is 13.255 -Id -1.255 -It message -Il 32 -If 0 -Ii 3 -Iv 32 
r -t 0.231149206 -Hs 4 -Hd -1 -Ni 4 -Nx 313.00 -Ny 285.00 -Nz 0.00 -Ne 49.861037 -Nl RTR -Nw --- -Ma 0 -Md ffffffff -Ms d -Mt 800 -Is 13.255 -Id -1.255 -It message -Il 32 -If 0 -Ii 3 -Iv 32 
r -t 0.231149245 -Hs 12 -Hd -1 -Ni 12 -Nx 423.00 -Ny 134.00 -Nz 0.00 -Ne 49.861037 -Nl RTR -Nw --- -Ma 0 -Md ffffffff -Ms d -Mt 800 -Is 13.255 -Id -1.255 -It message -Il 32 -If 0 -Ii 3 -Iv 32 
r -t 0.231149273 -Hs 5 -Hd -1 -Ni 5 -Nx 196.00 -Ny 287.00 -Nz 0.00 -Ne 49.861037 -Nl RTR -Nw --- -Ma 0 -Md ffffffff -Ms d -Mt 800 -Is 13.255 -Id -1.255 -It message -Il 32 -If 0 -Ii 3 -Iv 32 
r -t 0.231149376 -Hs 6 -Hd -1 -Ni 6 -Nx 436.00 -Ny 252.00 -Nz 0.00 -Ne 49.861037 -Nl RTR -Nw --- -Ma 0 -Md ffffffff -Ms d -Mt 800 -Is 13.255 -Id -1.255 -It message -Il 32 -If 0 -Ii 3 -Iv 32 
r -t 0.231149509 -Hs 2 -Hd -1 -Ni 2 -Nx 259.00 -Ny 380.00 -Nz 0.00 -Ne 49.861037 -Nl RTR -Nw --- -Ma 0 -Md ffffffff -Ms d -Mt 800 -Is 13.255 -Id -1.255 -It message -Il 32 -If 0 -Ii 3 -Iv 32 
r -t 0.231149548 -Hs 3 -Hd -1 -Ni 3 -Nx 388.00 -Ny 365.00 -Nz 0.00 -Ne 49.861037 -Nl RTR -Nw --- -Ma 0 -Md ffffffff -Ms d -Mt 800 -Is 13.255 -Id -1.255 -It message -Il 32 -If 0 -Ii 3 -Iv 32 
s -t 0.337340268 -Hs 10 -Hd -1 -Ni 10 -Nx 597.00 -Ny 295.00 -Nz 0.00 -Ne 49.861037 -Nl RTR -Nw --- -Ma 0 -Md 0 -Ms 0 -Mt 0 -Is 10.255 -Id -1.255 -It message -Il 32 -If 0 -Ii 4 -Iv 32 
s -t 0.337695268 -Hs 10 -Hd -1 -Ni 10 -Nx 597.00 -Ny 295.00 -Nz 0.00 -Ne 49.861037 -Nl MAC -Nw --- -Ma 0 -Md ffffffff -Ms a -Mt 800 -Is 10.255 -Id -1.255 -It message -Il 90 -If 0 -Ii 4 -Iv 32 
N -t 0.337696 -n 11 -e 49.796447
N -t 0.337696 -n 9 -e 49.796591
N -t 0.337696 -n 7 -e 49.796591
N -t 0.337696 -n 6 -e 49.796591
N -t 0.337696 -n 8 -e 49.796590
N -t 0.337696 -n 14 -e 49.796590
N -t 0.337696 -n 3 -e 49.796590
N -t 0.337696 -n 12 -e 49.796590
N -t 0.337696 -n 4 -e 49.796590
N -t 0.337696 -n 1 -e 49.796446
N -t 0.337696 -n 15 -e 49.796590
N -t 0.337696 -n 2 -e 49.796590
N -t 0.337696 -n 13 -e 49.796446
N -t 0.337697 -n 5 -e 49.796590
N -t 0.337697 -n 0 -e 49.796446
r -t 0.338415580 -Hs 11 -Hd -1 -Ni 11 -Nx 558.00 -Ny 210.00 -Nz 0.00 -Ne 49.796447 -Nl MAC -Nw --- -Ma 0 -Md ffffffff -Ms a -Mt 800 -Is 10.255 -Id -1.255 -It message -Il 32 -If 0 -Ii 4 -Iv 32 
r -t 0.338415606 -Hs 9 -Hd -1 -Ni 9 -Nx 575.00 -Ny 394.00 -Nz 0.00 -Ne 49.796591 -Nl MAC -Nw --- -Ma 0 -Md ffffffff -Ms a -Mt 800 -Is 10.255 -Id -1.255 -It message -Il 32 -If 0 -Ii 4 -Iv 32 
r -t 0.338415798 -Hs 7 -Hd -1 -Ni 7 -Nx 483.00 -Ny 406.00 -Nz 0.00 -Ne 49.796591 -Nl MAC -Nw --- -Ma 0 -Md ffffffff -Ms a -Mt 800 -Is 10.255 -Id -1.255 -It message -Il 32 -If 0 -Ii 4 -Iv 32 
r -t 0.338415823 -Hs 6 -Hd -1 -Ni 6 -Nx 436.00 -Ny 252.00 -Nz 0.00 -Ne 49.796591 -Nl MAC -Nw --- -Ma 0 -Md ffffffff -Ms a -Mt 800 -Is 10.255 -Id -1.255 -It message -Il 32 -If 0 -Ii 4 -Iv 32 
r -t 0.338415922 -Hs 8 -Hd -1 -Ni 8 -Nx 534.00 -Ny 481.00 -Nz 0.00 -Ne 49.796590 -Nl MAC -Nw --- -Ma 0 -Md ffffffff -Ms a -Mt 800 -Is 10.255 -Id -1.255 -It message -Il 32 -If 0 -Ii 4 -Iv 32 
r -t 0.338415928 -Hs 14 -Hd -1 -Ni 14 -Nx 545.00 -Ny 104.00 -Nz 0.00 -Ne 49.796590 -Nl MAC -Nw --- -Ma 0 -Md ffffffff -Ms a -Mt 800 -Is 10.255 -Id -1.255 -It message -Il 32 -If 0 -Ii 4 -Iv 32 
r -t 0.338416003 -Hs 3 -Hd -1 -Ni 3 -Nx 388.00 -Ny 365.00 -Nz 0.00 -Ne 49.796590 -Nl MAC -Nw --- -Ma 0 -Md ffffffff -Ms a -Mt 800 -Is 10.255 -Id -1.255 -It message -Il 32 -If 0 -Ii 4 -Iv 32 
r -t 0.338416058 -Hs 12 -Hd -1 -Ni 12 -Nx 423.00 -Ny 134.00 -Nz 0.00 -Ne 49.796590 -Nl MAC -Nw --- -Ma 0 -Md ffffffff -Ms a -Mt 800 -Is 10.255 -Id -1.255 -It message -Il 32 -If 0 -Ii 4 -Iv 32 
r -t 0.338440580 -Hs 11 -Hd -1 -Ni 11 -Nx 558.00 -Ny 210.00 -Nz 0.00 -Ne 49.796447 -Nl RTR -Nw --- -Ma 0 -Md ffffffff -Ms a -Mt 800 -Is 10.255 -Id -1.255 -It message -Il 32 -If 0 -Ii 4 -Iv 32 
r -t 0.338440606 -Hs 9 -Hd -1 -Ni 9 -Nx 575.00 -Ny 394.00 -Nz 0.00 -Ne 49.796591 -Nl RTR -Nw --- -Ma 0 -Md ffffffff -Ms a -Mt 800 -Is 10.255 -Id -1.255 -It message -Il 32 -If 0 -Ii 4 -Iv 32 
r -t 0.338440798 -Hs 7 -Hd -1 -Ni 7 -Nx 483.00 -Ny 406.00 -Nz 0.00 -Ne 49.796591 -Nl RTR -Nw --- -Ma 0 -Md ffffffff -Ms a -Mt 800 -Is 10.255 -Id -1.255 -It message -Il 32 -If 0 -Ii 4 -Iv 32 
r -t 0.338440823 -Hs 6 -Hd -1 -Ni 6 -Nx 436.00 -Ny 252.00 -Nz 0.00 -Ne 49.796591 -Nl RTR -Nw --- -Ma 0 -Md ffffffff -Ms a -Mt 800 -Is 10.255 -Id -1.255 -It message -Il 32 -If 0 -Ii 4 -Iv 32 
r -t 0.338440922 -Hs 8 -Hd -1 -Ni 8 -Nx 534.00 -Ny 481.00 -Nz 0.00 -Ne 49.796590 -Nl RTR -Nw --- -Ma 0 -Md ffffffff -Ms a -Mt 800 -Is 10.255 -Id -1.255 -It message -Il 32 -If 0 -Ii 4 -Iv 32 
r -t 0.338440928 -Hs 14 -Hd -1 -Ni 14 -Nx 545.00 -Ny 104.00 -Nz 0.00 -Ne 49.796590 -Nl RTR -Nw --- -Ma 0 -Md ffffffff -Ms a -Mt 800 -Is 10.255 -Id -1.255 -It message -Il 32 -If 0 -Ii 4 -Iv 32 
r -t 0.338441003 -Hs 3 -Hd -1 -Ni 3 -Nx 388.00 -Ny 365.00 -Nz 0.00 -Ne 49.796590 -Nl RTR -Nw --- -Ma 0 -Md ffffffff -Ms a -Mt 800 -Is 10.255 -Id -1.255 -It message -Il 32 -If 0 -Ii 4 -Iv 32 
r -t 0.338441058 -Hs 12 -Hd -1 -Ni 12 -Nx 423.00 -Ny 134.00 -Nz 0.00 -Ne 49.796590 -Nl RTR -Nw --- -Ma 0 -Md ffffffff -Ms a -Mt 800 -Is 10.255 -Id -1.255 -It message -Il 32 -If 0 -Ii 4 -Iv 32 
s -t 0.471077156 -Hs 6 -Hd -1 -Ni 6 -Nx 436.00 -Ny 252.00 -Nz 0.00 -Ne 49.796591 -Nl RTR -Nw --- -Ma 0 -Md 0 -Ms 0 -Mt 0 -Is 6.255 -Id -1.255 -It message -Il 32 -If 0 -Ii 5 -Iv 32 
s -t 0.471372156 -Hs 6 -Hd -1 -Ni 6 -Nx 436.00 -Ny 252.00 -Nz 0.00 -Ne 49.796591 -Nl MAC -Nw --- -Ma 0 -Md ffffffff -Ms 6 -Mt 800 -Is 6.255 -Id -1.255 -It message -Il 90 -If 0 -Ii 5 -Iv 32 
N -t 0.471373 -n 12 -e 49.716312
N -t 0.471373 -n 3 -e 49.716312
N -t 0.471373 -n 4 -e 49.716312
N -t 0.471373 -n 11 -e 49.716168
N -t 0.471373 -n 7 -e 49.716312
N -t 0.471373 -n 10 -e 49.716168
N -t 0.471373 -n 14 -e 49.716312
N -t 0.471373 -n 13 -e 49.716168
N -t 0.471373 -n 9 -e 49.716312
N -t 0.471373 -n 15 -e 49.716312
N -t 0.471373 -n 2 -e 49.716312
N -t 0.471373 -n 1 -e 49.716168
N -t 0.471373 -n 5 -e 49.716312
N -t 0.471373 -n 8 -e 49.716312
N -t 0.471373 -n 0 -e 49.716168
r -t 0.472092552 -Hs 12 -Hd -1 -Ni 12 -Nx 423.00 -Ny 134.00 -Nz 0.00 -Ne 49.716312 -Nl MAC -Nw --- -Ma 0 -Md ffffffff -Ms 6 -Mt 800 -Is 6.255 -Id -1.255 -It message -Il 32 -If 0 -Ii 5 -Iv 32 
r -t 0.472092565 -Hs 3 -Hd -1 -Ni 3 -Nx 388.00 -Ny 365.00 -Nz 0.00 -Ne 49.716312 -Nl MAC -Nw --- -Ma 0 -Md ffffffff -Ms 6 -Mt 800 -Is 6.255 -Id -1.255 -It message -Il 32 -If 0 -Ii 5 -Iv 32 
r -t 0.472092581 -Hs 4 -Hd -1 -Ni 4 -Nx 313.00 -Ny 285.00 -Nz 0.00 -Ne 49.716312 -Nl MAC -Nw --- -Ma 0 -Md ffffffff -Ms 6 -Mt 800 -Is 6.255 -Id -1.255 -It message -Il 32 -If 0 -Ii 5 -Iv 32 
r -t 0.472092586 -Hs 11 -Hd -1 -Ni 11 -Nx 558.00 -Ny 210.00 -Nz 0.00 -Ne 49.716168 -Nl MAC -Nw --- -Ma 0 -Md ffffffff -Ms 6 -Mt 800 -Is 6.255 -Id -1.255 -It message -Il 32 -If 0 -Ii 5 -Iv 32 
r -t 0.472092693 -Hs 7 -Hd -1 -Ni 7 -Nx 483.00 -Ny 406.00 -Nz 0.00 -Ne 49.716312 -Nl MAC -Nw --- -Ma 0 -Md ffffffff -Ms 6 -Mt 800 -Is 6.255 -Id -1.255 -It message -Il 32 -If 0 -Ii 5 -Iv 32 
r -t 0.472092712 -Hs 10 -Hd -1 -Ni 10 -Nx 597.00 -Ny 295.00 -Nz 0.00 -Ne 49.716168 -Nl MAC -Nw --- -Ma 0 -Md ffffffff -Ms 6 -Mt 800 -Is 6.255 -Id -1.255 -It message -Il 32 -If 0 -Ii 5 -Iv 32 
r -t 0.472092769 -Hs 14 -Hd -1 -Ni 14 -Nx 545.00 -Ny 104.00 -Nz 0.00 -Ne 49.716312 -Nl MAC -Nw --- -Ma 0 -Md ffffffff -Ms 6 -Mt 800 -Is 6.255 -Id -1.255 -It message -Il 32 -If 0 -Ii 5 -Iv 32 
r -t 0.472092779 -Hs 13 -Hd -1 -Ni 13 -Nx 277.00 -Ny 154.00 -Nz 0.00 -Ne 49.716168 -Nl MAC -Nw --- -Ma 0 -Md ffffffff -Ms 6 -Mt 800 -Is 6.255 -Id -1.255 -It message -Il 32 -If 0 -Ii 5 -Iv 32 
r -t 0.472092818 -Hs 9 -Hd -1 -Ni 9 -Nx 575.00 -Ny 394.00 -Nz 0.00 -Ne 49.716312 -Nl MAC -Nw --- -Ma 0 -Md ffffffff -Ms 6 -Mt 800 -Is 6.255 -Id -1.255 -It message -Il 32 -If 0 -Ii 5 -Iv 32 
r -t 0.472092835 -Hs 15 -Hd -1 -Ni 15 -Nx 341.00 -Ny 72.00 -Nz 0.00 -Ne 49.716312 -Nl MAC -Nw --- -Ma 0 -Md ffffffff -Ms 6 -Mt 800 -Is 6.255 -Id -1.255 -It message -Il 32 -If 0 -Ii 5 -Iv 32 
r -t 0.472092884 -Hs 2 -Hd -1 -Ni 2 -Nx 259.00 -Ny 380.00 -Nz 0.00 -Ne 49.716312 -Nl MAC -Nw --- -Ma 0 -Md ffffffff -Ms 6 -Mt 800 -Is 6.255 -Id -1.255 -It message -Il 32 -If 0 -Ii 5 -Iv 32 
r -t 0.472092921 -Hs 1 -Hd -1 -Ni 1 -Nx 364.00 -Ny 470.00 -Nz 0.00 -Ne 49.716168 -Nl MAC -Nw --- -Ma 0 -Md ffffffff -Ms 6 -Mt 800 -Is 6.255 -Id -1.255 -It message -Il 32 -If 0 -Ii 5 -Iv 32 
r -t 0.472092965 -Hs 5 -Hd -1 -Ni 5 -Nx 196.00 -Ny 287.00 -Nz 0.00 -Ne 49.716312 -Nl MAC -Nw --- -Ma 0 -Md ffffffff -Ms 6 -Mt 800 -Is 6.255 -Id -1.255 -It message -Il 32 -If 0 -Ii 5 -Iv 32 
r -t 0.472092986 -Hs 8 -Hd -1 -Ni 8 -Nx 534.00 -Ny 481.00 -Nz 0.00 -Ne 49.716312 -Nl MAC -Nw --- -Ma 0 -Md ffffffff -Ms 6 -Mt 800 -Is 6.255 -Id -1.255 -It message -Il 32 -If 0 -Ii 5 -Iv 32 
r -t 0.472117552 -Hs 12 -Hd -1 -Ni 12 -Nx 423.00 -Ny 134.00 -Nz 0.00 -Ne 49.716312 -Nl RTR -Nw --- -Ma 0 -Md ffffffff -Ms 6 -Mt 800 -Is 6.255 -Id -1.255 -It message -Il 32 -If 0 -Ii 5 -Iv 32 
r -t 0.472117565 -Hs 3 -Hd -1 -Ni 3 -Nx 388.00 -Ny 365.00 -Nz 0.00 -Ne 49.716312 -Nl RTR -Nw --- -Ma 0 -Md ffffffff -Ms 6 -Mt 800 -Is 6.255 -Id -1.255 -It message -Il 32 -If 0 -Ii 5 -Iv 32 
r -t 0.472117581 -Hs 4 -Hd -1 -Ni 4 -Nx 313.00 -Ny 285.00 -Nz 0.00 -Ne 49.716312 -Nl RTR -Nw --- -Ma 0 -Md ffffffff -Ms 6 -Mt 800 -Is 6.255 -Id -1.255 -It message -Il 32 -If 0 -Ii 5 -Iv 32 
r -t 0.472117586 -Hs 11 -Hd -1 -Ni 11 -Nx 558.00 -Ny 210.00 -Nz 0.00 -Ne 49.716168 -Nl RTR -Nw --- -Ma 0 -Md ffffffff -Ms 6 -Mt 800 -Is 6.255 -Id -1.255 -It message -Il 32 -If 0 -Ii 5 -Iv 32 
r -t 0.472117693 -Hs 7 -Hd -1 -Ni 7 -Nx 483.00 -Ny 406.00 -Nz 0.00 -Ne 49.716312 -Nl RTR -Nw --- -Ma 0 -Md ffffffff -Ms 6 -Mt 800 -Is 6.255 -Id -1.255 -It message -Il 32 -If 0 -Ii 5 -Iv 32 
r -t 0.472117712 -Hs 10 -Hd -1 -Ni 10 -Nx 597.00 -Ny 295.00 -Nz 0.00 -Ne 49.716168 -Nl RTR -Nw --- -Ma 0 -Md ffffffff -Ms 6 -Mt 800 -Is 6.255 -Id -1.255 -It message -Il 32 -If 0 -Ii 5 -Iv 32 
r -t 0.472117769 -Hs 14 -Hd -1 -Ni 14 -Nx 545.00 -Ny 104.00 -Nz 0.00 -Ne 49.716312 -Nl RTR -Nw --- -Ma 0 -Md ffffffff -Ms 6 -Mt 800 -Is 6.255 -Id -1.255 -It message -Il 32 -If 0 -Ii 5 -Iv 32 
r -t 0.472117779 -Hs 13 -Hd -1 -Ni 13 -Nx 277.00 -Ny 154.00 -Nz 0.00 -Ne 49.716168 -Nl RTR -Nw --- -Ma 0 -Md ffffffff -Ms 6 -Mt 800 -Is 6.255 -Id -1.255 -It message -Il 32 -If 0 -Ii 5 -Iv 32 
r -t 0.472117818 -Hs 9 -Hd -1 -Ni 9 -Nx 575.00 -Ny 394.00 -Nz 0.00 -Ne 49.716312 -Nl RTR -Nw --- -Ma 0 -Md ffffffff -Ms 6 -Mt 800 -Is 6.255 -Id -1.255 -It message -Il 32 -If 0 -Ii 5 -Iv 32 
r -t 0.472117835 -Hs 15 -Hd -1 -Ni 15 -Nx 341.00 -Ny 72.00 -Nz 0.00 -Ne 49.716312 -Nl RTR -Nw --- -Ma 0 -Md ffffffff -Ms 6 -Mt 800 -Is 6.255 -Id -1.255 -It message -Il 32 -If 0 -Ii 5 -Iv 32 
r -t 0.472117884 -Hs 2 -Hd -1 -Ni 2 -Nx 259.00 -Ny 380.00 -Nz 0.00 -Ne 49.716312 -Nl RTR -Nw --- -Ma 0 -Md ffffffff -Ms 6 -Mt 800 -Is 6.255 -Id -1.255 -It message -Il 32 -If 0 -Ii 5 -Iv 32 
r -t 0.472117921 -Hs 1 -Hd -1 -Ni 1 -Nx 364.00 -Ny 470.00 -Nz 0.00 -Ne 49.716168 -Nl RTR -Nw --- -Ma 0 -Md ffffffff -Ms 6 -Mt 800 -Is 6.255 -Id -1.255 -It message -Il 32 -If 0 -Ii 5 -Iv 32 
r -t 0.472117965 -Hs 5 -Hd -1 -Ni 5 -Nx 196.00 -Ny 287.00 -Nz 0.00 -Ne 49.716312 -Nl RTR -Nw --- -Ma 0 -Md ffffffff -Ms 6 -Mt 800 -Is 6.255 -Id -1.255 -It message -Il 32 -If 0 -Ii 5 -Iv 32 
r -t 0.472117986 -Hs 8 -Hd -1 -Ni 8 -Nx 534.00 -Ny 481.00 -Nz 0.00 -Ne 49.716312 -Nl RTR -Nw --- -Ma 0 -Md ffffffff -Ms 6 -Mt 800 -Is 6.255 -Id -1.255 -It message -Il 32 -If 0 -Ii 5 -Iv 32 
s -t 0.619278429 -Hs 8 -Hd -1 -Ni 8 -Nx 534.00 -Ny 481.00 -Nz 0.00 -Ne 49.716312 -Nl RTR -Nw --- -Ma 0 -Md 0 -Ms 0 -Mt 0 -Is 8.255 -Id -1.255 -It message -Il 32 -If 0 -Ii 6 -Iv 32 
s -t 0.619473429 -Hs 8 -Hd -1 -Ni 8 -Nx 534.00 -Ny 481.00 -Nz 0.00 -Ne 49.716312 -Nl MAC -Nw --- -Ma 0 -Md ffffffff -Ms 8 -Mt 800 -Is 8.255 -Id -1.255 -It message -Il 90 -If 0 -Ii 6 -Iv 32 
N -t 0.619474 -n 7 -e 49.627380
N -t 0.619474 -n 9 -e 49.627380
N -t 0.619474 -n 1 -e 49.627236
N -t 0.619474 -n 3 -e 49.627380
N -t 0.619474 -n 10 -e 49.627236
N -t 0.619474 -n 6 -e 49.627235
N -t 0.619474 -n 11 -e 49.627235
N -t 0.619474 -n 2 -e 49.627379
N -t 0.619474 -n 4 -e 49.627379
N -t 0.619475 -n 0 -e 49.627235
N -t 0.619475 -n 12 -e 49.627379
N -t 0.619475 -n 14 -e 49.627379
N -t 0.619475 -n 5 -e 49.627379
N -t 0.619475 -n 13 -e 49.627235
N -t 0.619475 -n 15 -e 49.627379
r -t 0.620193731 -Hs 7 -Hd -1 -Ni 7 -Nx 483.00 -Ny 406.00 -Nz 0.00 -Ne 49.627380 -Nl MAC -Nw --- -Ma 0 -Md ffffffff -Ms 8 -Mt 800 -Is 8.255 -Id -1.255 -It message -Il 32 -If 0 -Ii 6 -Iv 32 
r -t 0.620193749 -Hs 9 -Hd -1 -Ni 9 -Nx 575.00 -Ny 394.00 -Nz 0.00 -Ne 49.627380 -Nl MAC -Nw --- -Ma 0 -Md ffffffff -Ms 8 -Mt 800 -Is 8.255 -Id -1.255 -It message -Il 32 -If 0 -Ii 6 -Iv 32 
r -t 0.620193997 -Hs 1 -Hd -1 -Ni 1 -Nx 364.00 -Ny 470.00 -Nz 0.00 -Ne 49.627236 -Nl MAC -Nw --- -Ma 0 -Md ffffffff -Ms 8 -Mt 800 -Is 8.255 -Id -1.255 -It message -Il 32 -If 0 -Ii 6 -Iv 32 
r -t 0.620194050 -Hs 3 -Hd -1 -Ni 3 -Nx 388.00 -Ny 365.00 -Nz 0.00 -Ne 49.627380 -Nl MAC -Nw --- -Ma 0 -Md ffffffff -Ms 8 -Mt 800 -Is 8.255 -Id -1.255 -It message -Il 32 -If 0 -Ii 6 -Iv 32 
r -t 0.620194083 -Hs 10 -Hd -1 -Ni 10 -Nx 597.00 -Ny 295.00 -Nz 0.00 -Ne 49.627236 -Nl MAC -Nw --- -Ma 0 -Md ffffffff -Ms 8 -Mt 800 -Is 8.255 -Id -1.255 -It message -Il 32 -If 0 -Ii 6 -Iv 32 
r -t 0.620194259 -Hs 6 -Hd -1 -Ni 6 -Nx 436.00 -Ny 252.00 -Nz 0.00 -Ne 49.627235 -Nl MAC -Nw --- -Ma 0 -Md ffffffff -Ms 8 -Mt 800 -Is 8.255 -Id -1.255 -It message -Il 32 -If 0 -Ii 6 -Iv 32 
r -t 0.620218731 -Hs 7 -Hd -1 -Ni 7 -Nx 483.00 -Ny 406.00 -Nz 0.00 -Ne 49.627380 -Nl RTR -Nw --- -Ma 0 -Md ffffffff -Ms 8 -Mt 800 -Is 8.255 -Id -1.255 -It message -Il 32 -If 0 -Ii 6 -Iv 32 
r -t 0.620218749 -Hs 9 -Hd -1 -Ni 9 -Nx 575.00 -Ny 394.00 -Nz 0.00 -Ne 49.627380 -Nl RTR -Nw --- -Ma 0 -Md ffffffff -Ms 8 -Mt 800 -Is 8.255 -Id -1.255 -It message -Il 32 -If 0 -Ii 6 -Iv 32 
r -t 0.620218997 -Hs 1 -Hd -1 -Ni 1 -Nx 364.00 -Ny 470.00 -Nz 0.00 -Ne 49.627236 -Nl RTR -Nw --- -Ma 0 -Md ffffffff -Ms 8 -Mt 800 -Is 8.255 -Id -1.255 -It message -Il 32 -If 0 -Ii 6 -Iv 32 
r -t 0.620219050 -Hs 3 -Hd -1 -Ni 3 -Nx 388.00 -Ny 365.00 -Nz 0.00 -Ne 49.627380 -Nl RTR -Nw --- -Ma 0 -Md ffffffff -Ms 8 -Mt 800 -Is 8.255 -Id -1.255 -It message -Il 32 -If 0 -Ii 6 -Iv 32 
r -t 0.620219083 -Hs 10 -Hd -1 -Ni 10 -Nx 597.00 -Ny 295.00 -Nz 0.00 -Ne 49.627236 -Nl RTR -Nw --- -Ma 0 -Md ffffffff -Ms 8 -Mt 800 -Is 8.255 -Id -1.255 -It message -Il 32 -If 0 -Ii 6 -Iv 32 
r -t 0.620219259 -Hs 6 -Hd -1 -Ni 6 -Nx 436.00 -Ny 252.00 -Nz 0.00 -Ne 49.627235 -Nl RTR -Nw --- -Ma 0 -Md ffffffff -Ms 8 -Mt 800 -Is 8.255 -Id -1.255 -It message -Il 32 -If 0 -Ii 6 -Iv 32 
s -t 0.629280171 -Hs 4 -Hd -1 -Ni 4 -Nx 313.00 -Ny 285.00 -Nz 0.00 -Ne 49.627379 -Nl RTR -Nw --- -Ma 0 -Md 0 -Ms 0 -Mt 0 -Is 4.255 -Id -1.255 -It message -Il 32 -If 0 -Ii 7 -Iv 32 
s -t 0.629535171 -Hs 4 -Hd -1 -Ni 4 -Nx 313.00 -Ny 285.00 -Nz 0.00 -Ne 49.627379 -Nl MAC -Nw --- -Ma 0 -Md ffffffff -Ms 4 -Mt 800 -Is 4.255 -Id -1.255 -It message -Il 90 -If 0 -Ii 7 -Iv 32 
N -t 0.629536 -n 2 -e 49.621271
N -t 0.629536 -n 3 -e 49.621271
N -t 0.629536 -n 5 -e 49.621271
N -t 0.629536 -n 6 -e 49.621127
N -t 0.629536 -n 13 -e 49.621127
N -t 0.629536 -n 12 -e 49.621271
N -t 0.629536 -n 1 -e 49.621127
N -t 0.629536 -n 7 -e 49.621270
N -t 0.629536 -n 15 -e 49.621270
N -t 0.629536 -n 0 -e 49.621126
N -t 0.629536 -n 11 -e 49.621126
N -t 0.629536 -n 9 -e 49.621270
N -t 0.629536 -n 10 -e 49.621126
N -t 0.629536 -n 14 -e 49.621270
N -t 0.629536 -n 8 -e 49.621126
r -t 0.630255535 -Hs 2 -Hd -1 -Ni 2 -Nx 259.00 -Ny 380.00 -Nz 0.00 -Ne 49.621271 -Nl MAC -Nw --- -Ma 0 -Md ffffffff -Ms 4 -Mt 800 -Is 4.255 -Id -1.255 -It message -Il 32 -If 0 -Ii 7 -Iv 32 
r -t 0.630255536 -Hs 3 -Hd -1 -Ni 3 -Nx 388.00 -Ny 365.00 -Nz 0.00 -Ne 49.621271 -Nl MAC -Nw --- -Ma 0 -Md ffffffff -Ms 4 -Mt 800 -Is 4.255 -Id -1.255 -It message -Il 32 -If 0 -Ii 7 -Iv 32 
r -t 0.630255561 -Hs 5 -Hd -1 -Ni 5 -Nx 196.00 -Ny 287.00 -Nz 0.00 -Ne 49.621271 -Nl MAC -Nw --- -Ma 0 -Md ffffffff -Ms 4 -Mt 800 -Is 4.255 -Id -1.255 -It message -Il 32 -If 0 -Ii 7 -Iv 32 
r -t 0.630255595 -Hs 6 -Hd -1 -Ni 6 -Nx 436.00 -Ny 252.00 -Nz 0.00 -Ne 49.621127 -Nl MAC -Nw --- -Ma 0 -Md ffffffff -Ms 4 -Mt 800 -Is 4.255 -Id -1.255 -It message -Il 32 -If 0 -Ii 7 -Iv 32 
r -t 0.630255624 -Hs 13 -Hd -1 -Ni 13 -Nx 277.00 -Ny 154.00 -Nz 0.00 -Ne 49.621127 -Nl MAC -Nw --- -Ma 0 -Md ffffffff -Ms 4 -Mt 800 -Is 4.255 -Id -1.255 -It message -Il 32 -If 0 -Ii 7 -Iv 32 
r -t 0.630255794 -Hs 12 -Hd -1 -Ni 12 -Nx 423.00 -Ny 134.00 -Nz 0.00 -Ne 49.621271 -Nl MAC -Nw --- -Ma 0 -Md ffffffff -Ms 4 -Mt 800 -Is 4.255 -Id -1.255 -It message -Il 32 -If 0 -Ii 7 -Iv 32 
r -t 0.630255811 -Hs 1 -Hd -1 -Ni 1 -Nx 364.00 -Ny 470.00 -Nz 0.00 -Ne 49.621127 -Nl MAC -Nw --- -Ma 0 -Md ffffffff -Ms 4 -Mt 800 -Is 4.255 -Id -1.255 -It message -Il 32 -If 0 -Ii 7 -Iv 32 
r -t 0.630255866 -Hs 7 -Hd -1 -Ni 7 -Nx 483.00 -Ny 406.00 -Nz 0.00 -Ne 49.621270 -Nl MAC -Nw --- -Ma 0 -Md ffffffff -Ms 4 -Mt 800 -Is 4.255 -Id -1.255 -It message -Il 32 -If 0 -Ii 7 -Iv 32 
r -t 0.630255887 -Hs 15 -Hd -1 -Ni 15 -Nx 341.00 -Ny 72.00 -Nz 0.00 -Ne 49.621270 -Nl MAC -Nw --- -Ma 0 -Md ffffffff -Ms 4 -Mt 800 -Is 4.255 -Id -1.255 -It message -Il 32 -If 0 -Ii 7 -Iv 32 