s -t 0.036772557 -Hs 1 -Hd -1 -Ni 1 -Nx 429.00 -Ny 518.00 -Nz 0.00 -Ne -1.000000 -Nl RTR -Nw --- -Ma 0 -Md 0 -Ms 0 -Mt 0 -Is 1.255 -Id -1.255 -It message -Il 32 -If 0 -Ii 0 -Iv 32 
r -t 0.038133148 -Hs 7 -Hd -1 -Ni 7 -Nx 416.00 -Ny 341.00 -Nz 0.00 -Ne -1.000000 -Nl RTR -Nw --- -Ma 0 -Md ffffffff -Ms 1 -Mt 800 -Is 1.255 -Id -1.255 -It message -Il 32 -If 0 -Ii 0 -Iv 32 
r -t 0.038133179 -Hs 2 -Hd -1 -Ni 2 -Nx 582.00 -Ny 411.00 -Nz 0.00 -Ne -1.000000 -Nl RTR -Nw --- -Ma 0 -Md ffffffff -Ms 1 -Mt 800 -Is 1.255 -Id -1.255 -It message -Il 32 -If 0 -Ii 0 -Iv 32 
r -t 0.038133216 -Hs 0 -Hd -1 -Ni 0 -Nx 260.00 -Ny 415.00 -Nz 0.00 -Ne -1.000000 -Nl RTR -Nw --- -Ma 0 -Md ffffffff -Ms 1 -Mt 800 -Is 1.255 -Id -1.255 -It message -Il 32 -If 0 -Ii 0 -Iv 32 
r -t 0.038133387 -Hs 3 -Hd -1 -Ni 3 -Nx 678.00 -Ny 517.00 -Nz 0.00 -Ne -1.000000 -Nl RTR -Nw --- -Ma 0 -Md ffffffff -Ms 1 -Mt 800 -Is 1.255 -Id -1.255 -It message -Il 32 -If 0 -Ii 0 -Iv 32 
s -t 0.177383425 -Hs 2 -Hd -1 -Ni 2 -Nx 582.00 -Ny 411.00 -Nz 0.00 -Ne -1.000000 -Nl RTR -Nw --- -Ma 0 -Md 0 -Ms 0 -Mt 0 -Is 2.255 -Id -1.255 -It message -Il 32 -If 0 -Ii 1 -Iv 32 
r -t 0.178363902 -Hs 3 -Hd -1 -Ni 3 -Nx 678.00 -Ny 517.00 -Nz 0.00 -Ne -1.000000 -Nl RTR -Nw --- -Ma 0 -Md ffffffff -Ms 2 -Mt 800 -Is 2.255 -Id -1.255 -It message -Il 32 -If 0 -Ii 1 -Iv 32 
r -t 0.178364026 -Hs 7 -Hd -1 -Ni 7 -Nx 416.00 -Ny 341.00 -Nz 0.00 -Ne -1.000000 -Nl RTR -Nw --- -Ma 0 -Md ffffffff -Ms 2 -Mt 800 -Is 2.255 -Id -1.255 -It message -Il 32 -If 0 -Ii 1 -Iv 32 
r -t 0.178364047 -Hs 1 -Hd -1 -Ni 1 -Nx 429.00 -Ny 518.00 -Nz 0.00 -Ne -1.000000 -Nl RTR -Nw --- -Ma 0 -Md ffffffff -Ms 2 -Mt 800 -Is 2.255 -Id -1.255 -It message -Il 32 -If 0 -Ii 1 -Iv 32 
r -t 0.178364092 -Hs 6 -Hd -1 -Ni 6 -Nx 516.00 -Ny 222.00 -Nz 0.00 -Ne -1.000000 -Nl RTR -Nw --- -Ma 0 -Md ffffffff -Ms 2 -Mt 800 -Is 2.255 -Id -1.255 -It message -Il 32 -If 0 -Ii 1 -Iv 32 
r -t 0.178364122 -Hs 4 -Hd -1 -Ni 4 -Nx 791.00 -Ny 413.00 -Nz 0.00 -Ne -1.000000 -Nl RTR -Nw --- -Ma 0 -Md ffffffff -Ms 2 -Mt 800 -Is 2.255 -Id -1.255 -It message -Il 32 -If 0 -Ii 1 -Iv 32 
r -t 0.178364142 -Hs 5 -Hd -1 -Ni 5 -Nx 698.00 -Ny 230.00 -Nz 0.00 -Ne -1.000000 -Nl RTR -Nw --- -Ma 0 -Md ffffffff -Ms 2 -Mt 800 -Is 2.255 -Id -1.255 -It message -Il 32 -If 0 -Ii 1 -Iv 32 
s -t 0.470144892 -Hs 7 -Hd -1 -Ni 7 -Nx 416.00 -Ny 341.00 -Nz 0.00 -Ne -1.000000 -Nl RTR -Nw --- -Ma 0 -Md 0 -Ms 0 -Mt 0 -Is 7.255 -Id -1.255 -It message -Il 32 -If 0 -Ii 2 -Iv 32 
r -t 0.471165392 -Hs 8 -Hd -1 -Ni 8 -Nx 315.00 -Ny 230.00 -Nz 0.00 -Ne -1.000000 -Nl RTR -Nw --- -Ma 0 -Md ffffffff -Ms 7 -Mt 800 -Is 7.255 -Id -1.255 -It message -Il 32 -If 0 -Ii 2 -Iv 32 
r -t 0.471165410 -Hs 6 -Hd -1 -Ni 6 -Nx 516.00 -Ny 222.00 -Nz 0.00 -Ne -1.000000 -Nl RTR -Nw --- -Ma 0 -Md ffffffff -Ms 7 -Mt 800 -Is 7.255 -Id -1.255 -It message -Il 32 -If 0 -Ii 2 -Iv 32 
r -t 0.471165468 -Hs 0 -Hd -1 -Ni 0 -Nx 260.00 -Ny 415.00 -Nz 0.00 -Ne -1.000000 -Nl RTR -Nw --- -Ma 0 -Md ffffffff -Ms 7 -Mt 800 -Is 7.255 -Id -1.255 -It message -Il 32 -If 0 -Ii 2 -Iv 32 
r -t 0.471165484 -Hs 1 -Hd -1 -Ni 1 -Nx 429.00 -Ny 518.00 -Nz 0.00 -Ne -1.000000 -Nl RTR -Nw --- -Ma 0 -Md ffffffff -Ms 7 -Mt 800 -Is 7.255 -Id -1.255 -It message -Il 32 -If 0 -Ii 2 -Iv 32 
r -t 0.471165493 -Hs 2 -Hd -1 -Ni 2 -Nx 582.00 -Ny 411.00 -Nz 0.00 -Ne -1.000000 -Nl RTR -Nw --- -Ma 0 -Md ffffffff -Ms 7 -Mt 800 -Is 7.255 -Id -1.255 -It message -Il 32 -If 0 -Ii 2 -Iv 32 
s -t 0.622244972 -Hs 9 -Hd -1 -Ni 9 -Nx 514.00 -Ny 80.00 -Nz 0.00 -Ne -1.000000 -Nl RTR -Nw --- -Ma 0 -Md 0 -Ms 0 -Mt 0 -Is 9.255 -Id -1.255 -It message -Il 32 -If 0 -Ii 3 -Iv 32 
r -t 0.623505446 -Hs 6 -Hd -1 -Ni 6 -Nx 516.00 -Ny 222.00 -Nz 0.00 -Ne -1.000000 -Nl RTR -Nw --- -Ma 0 -Md ffffffff -Ms 9 -Mt 800 -Is 9.255 -Id -1.255 -It message -Il 32 -If 0 -Ii 3 -Iv 32 
r -t 0.623505764 -Hs 5 -Hd -1 -Ni 5 -Nx 698.00 -Ny 230.00 -Nz 0.00 -Ne -1.000000 -Nl RTR -Nw --- -Ma 0 -Md ffffffff -Ms 9 -Mt 800 -Is 9.255 -Id -1.255 -It message -Il 32 -If 0 -Ii 3 -Iv 32 
r -t 0.623505803 -Hs 8 -Hd -1 -Ni 8 -Nx 315.00 -Ny 230.00 -Nz 0.00 -Ne -1.000000 -Nl RTR -Nw --- -Ma 0 -Md ffffffff -Ms 9 -Mt 800 -Is 9.255 -Id -1.255 -It message -Il 32 -If 0 -Ii 3 -Iv 32 
s -t 0.634544216 -Hs 5 -Hd -1 -Ni 5 -Nx 698.00 -Ny 230.00 -Nz 0.00 -Ne -1.000000 -Nl RTR -Nw --- -Ma 0 -Md 0 -Ms 0 -Mt 0 -Is 5.255 -Id -1.255 -It message -Il 32 -If 0 -Ii 4 -Iv 32 
r -t 0.635904823 -Hs 6 -Hd -1 -Ni 6 -Nx 516.00 -Ny 222.00 -Nz 0.00 -Ne -1.000000 -Nl RTR -Nw --- -Ma 0 -Md ffffffff -Ms 5 -Mt 800 -Is 5.255 -Id -1.255 -It message -Il 32 -If 0 -Ii 4 -Iv 32 
r -t 0.635904900 -Hs 4 -Hd -1 -Ni 4 -Nx 791.00 -Ny 413.00 -Nz 0.00 -Ne -1.000000 -Nl RTR -Nw --- -Ma 0 -Md ffffffff -Ms 5 -Mt 800 -Is 5.255 -Id -1.255 -It message -Il 32 -If 0 -Ii 4 -Iv 32 
r -t 0.635904933 -Hs 2 -Hd -1 -Ni 2 -Nx 582.00 -Ny 411.00 -Nz 0.00 -Ne -1.000000 -Nl RTR -Nw --- -Ma 0 -Md ffffffff -Ms 5 -Mt 800 -Is 5.255 -Id -1.255 -It message -Il 32 -If 0 -Ii 4 -Iv 32 
r -t 0.635905007 -Hs 9 -Hd -1 -Ni 9 -Nx 514.00 -Ny 80.00 -Nz 0.00 -Ne -1.000000 -Nl RTR -Nw --- -Ma 0 -Md ffffffff -Ms 5 -Mt 800 -Is 5.255 -Id -1.255 -It message -Il 32 -If 0 -Ii 4 -Iv 32 
s -t 0.890857830 -Hs 3 -Hd -1 -Ni 3 -Nx 678.00 -Ny 517.00 -Nz 0.00 -Ne -1.000000 -Nl RTR -Nw --- -Ma 0 -Md 0 -Ms 0 -Mt 0 -Is 3.255 -Id -1.255 -It message -Il 32 -If 0 -Ii 5 -Iv 32 
r -t 0.892038306 -Hs 2 -Hd -1 -Ni 2 -Nx 582.00 -Ny 411.00 -Nz 0.00 -Ne -1.000000 -Nl RTR -Nw --- -Ma 0 -Md ffffffff -Ms 3 -Mt 800 -Is 3.255 -Id -1.255 -It message -Il 32 -If 0 -Ii 5 -Iv 32 
r -t 0.892038342 -Hs 4 -Hd -1 -Ni 4 -Nx 791.00 -Ny 413.00 -Nz 0.00 -Ne -1.000000 -Nl RTR -Nw --- -Ma 0 -Md ffffffff -Ms 3 -Mt 800 -Is 3.255 -Id -1.255 -It message -Il 32 -If 0 -Ii 5 -Iv 32 
r -t 0.892038660 -Hs 1 -Hd -1 -Ni 1 -Nx 429.00 -Ny 518.00 -Nz 0.00 -Ne -1.000000 -Nl RTR -Nw --- -Ma 0 -Md ffffffff -Ms 3 -Mt 800 -Is 3.255 -Id -1.255 -It message -Il 32 -If 0 -Ii 5 -Iv 32 
s -t 1.115816623 -Hs 0 -Hd -1 -Ni 0 -Nx 260.00 -Ny 415.00 -Nz 0.00 -Ne -1.000000 -Nl RTR -Nw --- -Ma 0 -Md 0 -Ms 0 -Mt 0 -Is 0.255 -Id -1.255 -It message -Il 32 -If 0 -Ii 6 -Iv 32 
r -t 1.116837198 -Hs 7 -Hd -1 -Ni 7 -Nx 416.00 -Ny 341.00 -Nz 0.00 -Ne -1.000000 -Nl RTR -Nw --- -Ma 0 -Md ffffffff -Ms 0 -Mt 800 -Is 0.255 -Id -1.255 -It message -Il 32 -If 0 -Ii 6 -Iv 32 
r -t 1.116837266 -Hs 8 -Hd -1 -Ni 8 -Nx 315.00 -Ny 230.00 -Nz 0.00 -Ne -1.000000 -Nl RTR -Nw --- -Ma 0 -Md ffffffff -Ms 0 -Mt 800 -Is 0.255 -Id -1.255 -It message -Il 32 -If 0 -Ii 6 -Iv 32 
r -t 1.116837282 -Hs 1 -Hd -1 -Ni 1 -Nx 429.00 -Ny 518.00 -Nz 0.00 -Ne -1.000000 -Nl RTR -Nw --- -Ma 0 -Md ffffffff -Ms 0 -Mt 800 -Is 0.255 -Id -1.255 -It message -Il 32 -If 0 -Ii 6 -Iv 32 
s -t 1.286604722 -Hs 8 -Hd -1 -Ni 8 -Nx 315.00 -Ny 230.00 -Nz 0.00 -Ne -1.000000 -Nl RTR -Nw --- -Ma 0 -Md 0 -Ms 0 -Mt 0 -Is 8.255 -Id -1.255 -It message -Il 32 -If 0 -Ii 7 -Iv 32 
r -t 1.287625222 -Hs 7 -Hd -1 -Ni 7 -Nx 416.00 -Ny 341.00 -Nz 0.00 -Ne -1.000000 -Nl RTR -Nw --- -Ma 0 -Md ffffffff -Ms 8 -Mt 800 -Is 8.255 -Id -1.255 -It message -Il 32 -If 0 -Ii 7 -Iv 32 
r -t 1.287625365 -Hs 0 -Hd -1 -Ni 0 -Nx 260.00 -Ny 415.00 -Nz 0.00 -Ne -1.000000 -Nl RTR -Nw --- -Ma 0 -Md ffffffff -Ms 8 -Mt 800 -Is 8.255 -Id -1.255 -It message -Il 32 -If 0 -Ii 7 -Iv 32 
r -t 1.287625393 -Hs 6 -Hd -1 -Ni 6 -Nx 516.00 -Ny 222.00 -Nz 0.00 -Ne -1.000000 -Nl RTR -Nw --- -Ma 0 -Md ffffffff -Ms 8 -Mt 800 -Is 8.255 -Id -1.255 -It message -Il 32 -If 0 -Ii 7 -Iv 32 
r -t 1.287625553 -Hs 9 -Hd -1 -Ni 9 -Nx 514.00 -Ny 80.00 -Nz 0.00 -Ne -1.000000 -Nl RTR -Nw --- -Ma 0 -Md ffffffff -Ms 8 -Mt 800 -Is 8.255 -Id -1.255 -It message -Il 32 -If 0 -Ii 7 -Iv 32 
s -t 1.598894933 -Hs 4 -Hd -1 -Ni 4 -Nx 791.00 -Ny 413.00 -Nz 0.00 -Ne -1.000000 -Nl RTR -Nw --- -Ma 0 -Md 0 -Ms 0 -Mt 0 -Is 4.255 -Id -1.255 -It message -Il 32 -If 0 -Ii 8 -Iv 32 
r -t 1.600055445 -Hs 3 -Hd -1 -Ni 3 -Nx 678.00 -Ny 517.00 -Nz 0.00 -Ne -1.000000 -Nl RTR -Nw --- -Ma 0 -Md ffffffff -Ms 4 -Mt 800 -Is 4.255 -Id -1.255 -It message -Il 32 -If 0 -Ii 8 -Iv 32 
r -t 1.600055618 -Hs 5 -Hd -1 -Ni 5 -Nx 698.00 -Ny 230.00 -Nz 0.00 -Ne -1.000000 -Nl RTR -Nw --- -Ma 0 -Md ffffffff -Ms 4 -Mt 800 -Is 4.255 -Id -1.255 -It message -Il 32 -If 0 -Ii 8 -Iv 32 
r -t 1.600055630 -Hs 2 -Hd -1 -Ni 2 -Nx 582.00 -Ny 411.00 -Nz 0.00 -Ne -1.000000 -Nl RTR -Nw --- -Ma 0 -Md ffffffff -Ms 4 -Mt 800 -Is 4.255 -Id -1.255 -It message -Il 32 -If 0 -Ii 8 -Iv 32 
s -t 1.634183138 -Hs 6 -Hd -1 -Ni 6 -Nx 516.00 -Ny 222.00 -Nz 0.00 -Ne -1.000000 -Nl RTR -Nw --- -Ma 0 -Md 0 -Ms 0 -Mt 0 -Is 6.255 -Id -1.255 -It message -Il 32 -If 0 -Ii 9 -Iv 32 
r -t 1.635283611 -Hs 9 -Hd -1 -Ni 9 -Nx 514.00 -Ny 80.00 -Nz 0.00 -Ne -1.000000 -Nl RTR -Nw --- -Ma 0 -Md ffffffff -Ms 6 -Mt 800 -Is 6.255 -Id -1.255 -It message -Il 32 -If 0 -Ii 9 -Iv 32 
r -t 1.635283656 -Hs 7 -Hd -1 -Ni 7 -Nx 416.00 -Ny 341.00 -Nz 0.00 -Ne -1.000000 -Nl RTR -Nw --- -Ma 0 -Md ffffffff -Ms 6 -Mt 800 -Is 6.255 -Id -1.255 -It message -Il 32 -If 0 -Ii 9 -Iv 32 
r -t 1.635283745 -Hs 5 -Hd -1 -Ni 5 -Nx 698.00 -Ny 230.00 -Nz 0.00 -Ne -1.000000 -Nl RTR -Nw --- -Ma 0 -Md ffffffff -Ms 6 -Mt 800 -Is 6.255 -Id -1.255 -It message -Il 32 -If 0 -Ii 9 -Iv 32 
r -t 1.635283805 -Hs 2 -Hd -1 -Ni 2 -Nx 582.00 -Ny 411.00 -Nz 0.00 -Ne -1.000000 -Nl RTR -Nw --- -Ma 0 -Md ffffffff -Ms 6 -Mt 800 -Is 6.255 -Id -1.255 -It message -Il 32 -If 0 -Ii 9 -Iv 32 
r -t 1.635283808 -Hs 8 -Hd -1 -Ni 8 -Nx 315.00 -Ny 230.00 -Nz 0.00 -Ne -1.000000 -Nl RTR -Nw --- -Ma 0 -Md ffffffff -Ms 6 -Mt 800 -Is 6.255 -Id -1.255 -It message -Il 32 -If 0 -Ii 9 -Iv 32 
M 10.00000 0 (260.00, 415.00, 0.00), (250.00, 250.00), 3.00
s -t 10.000000000 -Hs 0 -Hd -2 -Ni 0 -Nx 260.00 -Ny 415.00 -Nz 0.00 -Ne -1.000000 -Nl AGT -Nw --- -Ma 0 -Md 0 -Ms 0 -Mt 0 -Is 0.0 -Id 7.0 -It tcp -Il 40 -If 2 -Ii 10 -Iv 32 -Pn tcp -Ps 0 -Pa 0 -Pf 0 -Po 0 
r -t 10.000000000 -Hs 0 -Hd -2 -Ni 0 -Nx 260.00 -Ny 415.00 -Nz 0.00 -Ne -1.000000 -Nl RTR -Nw --- -Ma 0 -Md 0 -Ms 0 -Mt 0 -Is 0.0 -Id 7.0 -It tcp -Il 40 -If 2 -Ii 10 -Iv 32 -Pn tcp -Ps 0 -Pa 0 -Pf 0 -Po 0 
s -t 10.000000000 -Hs 0 -Hd 7 -Ni 0 -Nx 260.00 -Ny 415.00 -Nz 0.00 -Ne -1.000000 -Nl RTR -Nw --- -Ma 0 -Md 0 -Ms 0 -Mt 0 -Is 0.0 -Id 7.0 -It tcp -Il 60 -If 2 -Ii 10 -Iv 32 -Pn tcp -Ps 0 -Pa 0 -Pf 0 -Po 0 
r -t 10.004655029 -Hs 7 -Hd 7 -Ni 7 -Nx 416.00 -Ny 341.00 -Nz 0.00 -Ne -1.000000 -Nl AGT -Nw --- -Ma 13a -Md 7 -Ms 0 -Mt 800 -Is 0.0 -Id 7.0 -It tcp -Il 60 -If 2 -Ii 10 -Iv 32 -Pn tcp -Ps 0 -Pa 0 -Pf 1 -Po 0 
s -t 10.004655029 -Hs 7 -Hd -2 -Ni 7 -Nx 416.00 -Ny 341.00 -Nz 0.00 -Ne -1.000000 -Nl AGT -Nw --- -Ma 0 -Md 0 -Ms 0 -Mt 0 -Is 7.0 -Id 0.0 -It ack -Il 40 -If 2 -Ii 11 -Iv 32 -Pn tcp -Ps 0 -Pa 0 -Pf 0 -Po 0 
r -t 10.004655029 -Hs 7 -Hd -2 -Ni 7 -Nx 416.00 -Ny 341.00 -Nz 0.00 -Ne -1.000000 -Nl RTR -Nw --- -Ma 0 -Md 0 -Ms 0 -Mt 0 -Is 7.0 -Id 0.0 -It ack -Il 40 -If 2 -Ii 11 -Iv 32 -Pn tcp -Ps 0 -Pa 0 -Pf 0 -Po 0 
s -t 10.004655029 -Hs 7 -Hd 0 -Ni 7 -Nx 416.00 -Ny 341.00 -Nz 0.00 -Ne -1.000000 -Nl RTR -Nw --- -Ma 0 -Md 0 -Ms 0 -Mt 0 -Is 7.0 -Id 0.0 -It ack -Il 60 -If 2 -Ii 11 -Iv 32 -Pn tcp -Ps 0 -Pa 0 -Pf 0 -Po 0 
r -t 10.006720755 -Hs 0 -Hd 0 -Ni 0 -Nx 260.00 -Ny 414.98 -Nz 0.00 -Ne -1.000000 -Nl AGT -Nw --- -Ma 13a -Md 0 -Ms 7 -Mt 800 -Is 7.0 -Id 0.0 -It ack -Il 60 -If 2 -Ii 11 -Iv 32 -Pn tcp -Ps 0 -Pa 0 -Pf 1 -Po 0 
s -t 10.006720755 -Hs 0 -Hd -2 -Ni 0 -Nx 260.00 -Ny 414.98 -Nz 0.00 -Ne -1.000000 -Nl AGT -Nw --- -Ma 0 -Md 0 -Ms 0 -Mt 0 -Is 0.0 -Id 7.0 -It tcp -Il 1040 -If 2 -Ii 12 -Iv 32 -Pn tcp -Ps 1 -Pa 0 -Pf 0 -Po 0 
r -t 10.006720755 -Hs 0 -Hd -2 -Ni 0 -Nx 260.00 -Ny 414.98 -Nz 0.00 -Ne -1.000000 -Nl RTR -Nw --- -Ma 0 -Md 0 -Ms 0 -Mt 0 -Is 0.0 -Id 7.0 -It tcp -Il 1040 -If 2 -Ii 12 -Iv 32 -Pn tcp -Ps 1 -Pa 0 -Pf 0 -Po 0 
s -t 10.006720755 -Hs 0 -Hd 7 -Ni 0 -Nx 260.00 -Ny 414.98 -Nz 0.00 -Ne -1.000000 -Nl RTR -Nw --- -Ma 0 -Md 0 -Ms 0 -Mt 0 -Is 0.0 -Id 7.0 -It tcp -Il 1060 -If 2 -Ii 12 -Iv 32 -Pn tcp -Ps 1 -Pa 0 -Pf 0 -Po 0 
s -t 10.006720755 -Hs 0 -Hd -2 -Ni 0 -Nx 260.00 -Ny 414.98 -Nz 0.00 -Ne -1.000000 -Nl AGT -Nw --- -Ma 0 -Md 0 -Ms 0 -Mt 0 -Is 0.0 -Id 7.0 -It tcp -Il 1040 -If 2 -Ii 13 -Iv 32 -Pn tcp -Ps 2 -Pa 0 -Pf 0 -Po 0 
r -t 10.006720755 -Hs 0 -Hd -2 -Ni 0 -Nx 260.00 -Ny 414.98 -Nz 0.00 -Ne -1.000000 -Nl RTR -Nw --- -Ma 0 -Md 0 -Ms 0 -Mt 0 -Is 0.0 -Id 7.0 -It tcp -Il 1040 -If 2 -Ii 13 -Iv 32 -Pn tcp -Ps 2 -Pa 0 -Pf 0 -Po 0 
s -t 10.006720755 -Hs 0 -Hd 7 -Ni 0 -Nx 260.00 -Ny 414.98 -Nz 0.00 -Ne -1.000000 -Nl RTR -Nw --- -Ma 0 -Md 0 -Ms 0 -Mt 0 -Is 0.0 -Id 7.0 -It tcp -Il 1060 -If 2 -Ii 13 -Iv 32 -Pn tcp -Ps 2 -Pa 0 -Pf 0 -Po 0 
r -t 10.016726482 -Hs 7 -Hd 7 -Ni 7 -Nx 416.00 -Ny 341.00 -Nz 0.00 -Ne -1.000000 -Nl AGT -Nw --- -Ma 13a -Md 7 -Ms 0 -Mt 800 -Is 0.0 -Id 7.0 -It tcp -Il 1060 -If 2 -Ii 12 -Iv 32 -Pn tcp -Ps 1 -Pa 0 -Pf 1 -Po 0 
s -t 10.016726482 -Hs 7 -Hd -2 -Ni 7 -Nx 416.00 -Ny 341.00 -Nz 0.00 -Ne -1.000000 -Nl AGT -Nw --- -Ma 0 -Md 0 -Ms 0 -Mt 0 -Is 7.0 -Id 0.0 -It ack -Il 40 -If 2 -Ii 14 -Iv 32 -Pn tcp -Ps 1 -Pa 0 -Pf 0 -Po 0 
r -t 10.016726482 -Hs 7 -Hd -2 -Ni 7 -Nx 416.00 -Ny 341.00 -Nz 0.00 -Ne -1.000000 -Nl RTR -Nw --- -Ma 0 -Md 0 -Ms 0 -Mt 0 -Is 7.0 -Id 0.0 -It ack -Il 40 -If 2 -Ii 14 -Iv 32 -Pn tcp -Ps 1 -Pa 0 -Pf 0 -Po 0 
s -t 10.016726482 -Hs 7 -Hd 0 -Ni 7 -Nx 416.00 -Ny 341.00 -Nz 0.00 -Ne -1.000000 -Nl RTR -Nw --- -Ma 0 -Md 0 -Ms 0 -Mt 0 -Is 7.0 -Id 0.0 -It ack -Il 60 -If 2 -Ii 14 -Iv 32 -Pn tcp -Ps 1 -Pa 0 -Pf 0 -Po 0 
r -t 10.026712784 -Hs 7 -Hd 7 -Ni 7 -Nx 416.00 -Ny 341.00 -Nz 0.00 -Ne -1.000000 -Nl AGT -Nw --- -Ma 13a -Md 7 -Ms 0 -Mt 800 -Is 0.0 -Id 7.0 -It tcp -Il 1060 -If 2 -Ii 13 -Iv 32 -Pn tcp -Ps 2 -Pa 0 -Pf 1 -Po 0 
s -t 10.026712784 -Hs 7 -Hd -2 -Ni 7 -Nx 416.00 -Ny 341.00 -Nz 0.00 -Ne -1.000000 -Nl AGT -Nw --- -Ma 0 -Md 0 -Ms 0 -Mt 0 -Is 7.0 -Id 0.0 -It ack -Il 40 -If 2 -Ii 15 -Iv 32 -Pn tcp -Ps 2 -Pa 0 -Pf 0 -Po 0 
r -t 10.026712784 -Hs 7 -Hd -2 -Ni 7 -Nx 416.00 -Ny 341.00 -Nz 0.00 -Ne -1.000000 -Nl RTR -Nw --- -Ma 0 -Md 0 -Ms 0 -Mt 0 -Is 7.0 -Id 0.0 -It ack -Il 40 -If 2 -Ii 15 -Iv 32 -Pn tcp -Ps 2 -Pa 0 -Pf 0 -Po 0 
s -t 10.026712784 -Hs 7 -Hd 0 -Ni 7 -Nx 416.00 -Ny 341.00 -Nz 0.00 -Ne -1.000000 -Nl RTR -Nw --- -Ma 0 -Md 0 -Ms 0 -Mt 0 -Is 7.0 -Id 0.0 -It ack -Il 60 -If 2 -Ii 15 -Iv 32 -Pn tcp -Ps 2 -Pa 0 -Pf 0 -Po 0 
r -t 10.028998510 -Hs 0 -Hd 0 -Ni 0 -Nx 259.99 -Ny 414.91 -Nz 0.00 -Ne -1.000000 -Nl AGT -Nw --- -Ma 13a -Md 0 -Ms 7 -Mt 800 -Is 7.0 -Id 0.0 -It ack -Il 60 -If 2 -Ii 14 -Iv 32 -Pn tcp -Ps 1 -Pa 0 -Pf 1 -Po 0 
s -t 10.028998510 -Hs 0 -Hd -2 -Ni 0 -Nx 259.99 -Ny 414.91 -Nz 0.00 -Ne -1.000000 -Nl AGT -Nw --- -Ma 0 -Md 0 -Ms 0 -Mt 0 -Is 0.0 -Id 7.0 -It tcp -Il 1040 -If 2 -Ii 16 -Iv 32 -Pn tcp -Ps 3 -Pa 0 -Pf 0 -Po 0 
r -t 10.028998510 -Hs 0 -Hd -2 -Ni 0 -Nx 259.99 -Ny 414.91 -Nz 0.00 -Ne -1.000000 -Nl RTR -Nw --- -Ma 0 -Md 0 -Ms 0 -Mt 0 -Is 0.0 -Id 7.0 -It tcp -Il 1040 -If 2 -Ii 16 -Iv 32 -Pn tcp -Ps 3 -Pa 0 -Pf 0 -Po 0 
s -t 10.028998510 -Hs 0 -Hd 7 -Ni 0 -Nx 259.99 -Ny 414.91 -Nz 0.00 -Ne -1.000000 -Nl RTR -Nw --- -Ma 0 -Md 0 -Ms 0 -Mt 0 -Is 0.0 -Id 7.0 -It tcp -Il 1060 -If 2 -Ii 16 -Iv 32 -Pn tcp -Ps 3 -Pa 0 -Pf 0 -Po 0 
s -t 10.028998510 -Hs 0 -Hd -2 -Ni 0 -Nx 259.99 -Ny 414.91 -Nz 0.00 -Ne -1.000000 -Nl AGT -Nw --- -Ma 0 -Md 0 -Ms 0 -Mt 0 -Is 0.0 -Id 7.0 -It tcp -Il 1040 -If 2 -Ii 17 -Iv 32 -Pn tcp -Ps 4 -Pa 0 -Pf 0 -Po 0 
r -t 10.028998510 -Hs 0 -Hd -2 -Ni 0 -Nx 259.99 -Ny 414.91 -Nz 0.00 -Ne -1.000000 -Nl RTR -Nw --- -Ma 0 -Md 0 -Ms 0 -Mt 0 -Is 0.0 -Id 7.0 -It tcp -Il 1040 -If 2 -Ii 17 -Iv 32 -Pn tcp -Ps 4 -Pa 0 -Pf 0 -Po 0 
s -t 10.028998510 -Hs 0 -Hd 7 -Ni 0 -Nx 259.99 -Ny 414.91 -Nz 0.00 -Ne -1.000000 -Nl RTR -Nw --- -Ma 0 -Md 0 -Ms 0 -Mt 0 -Is 0.0 -Id 7.0 -It tcp -Il 1060 -If 2 -Ii 17 -Iv 32 -Pn tcp -Ps 4 -Pa 0 -Pf 0 -Po 0 
r -t 10.031264812 -Hs 0 -Hd 0 -Ni 0 -Nx 259.99 -Ny 414.91 -Nz 0.00 -Ne -1.000000 -Nl AGT -Nw --- -Ma 13a -Md 0 -Ms 7 -Mt 800 -Is 7.0 -Id 0.0 -It ack -Il 60 -If 2 -Ii 15 -Iv 32 -Pn tcp -Ps 2 -Pa 0 -Pf 1 -Po 0 
s -t 10.031264812 -Hs 0 -Hd -2 -Ni 0 -Nx 259.99 -Ny 414.91 -Nz 0.00 -Ne -1.000000 -Nl AGT -Nw --- -Ma 0 -Md 0 -Ms 0 -Mt 0 -Is 0.0 -Id 7.0 -It tcp -Il 1040 -If 2 -Ii 18 -Iv 32 -Pn tcp -Ps 5 -Pa 0 -Pf 0 -Po 0 
r -t 10.031264812 -Hs 0 -Hd -2 -Ni 0 -Nx 259.99 -Ny 414.91 -Nz 0.00 -Ne -1.000000 -Nl RTR -Nw --- -Ma 0 -Md 0 -Ms 0 -Mt 0 -Is 0.0 -Id 7.0 -It tcp -Il 1040 -If 2 -Ii 18 -Iv 32 -Pn tcp -Ps 5 -Pa 0 -Pf 0 -Po 0 
s -t 10.031264812 -Hs 0 -Hd 7 -Ni 0 -Nx 259.99 -Ny 414.91 -Nz 0.00 -Ne -1.000000 -Nl RTR -Nw --- -Ma 0 -Md 0 -Ms 0 -Mt 0 -Is 0.0 -Id 7.0 -It tcp -Il 1060 -If 2 -Ii 18 -Iv 32 -Pn tcp -Ps 5 -Pa 0 -Pf 0 -Po 0 
s -t 10.031264812 -Hs 0 -Hd -2 -Ni 0 -Nx 259.99 -Ny 414.91 -Nz 0.00 -Ne -1.000000 -Nl AGT -Nw --- -Ma 0 -Md 0 -Ms 0 -Mt 0 -Is 0.0 -Id 7.0 -It tcp -Il 1040 -If 2 -Ii 19 -Iv 32 -Pn tcp -Ps 6 -Pa 0 -Pf 0 -Po 0 
r -t 10.031264812 -Hs 0 -Hd -2 -Ni 0 -Nx 259.99 -Ny 414.91 -Nz 0.00 -Ne -1.000000 -Nl RTR -Nw --- -Ma 0 -Md 0 -Ms 0 -Mt 0 -Is 0.0 -Id 7.0 -It tcp -Il 1040 -If 2 -Ii 19 -Iv 32 -Pn tcp -Ps 6 -Pa 0 -Pf 0 -Po 0 
s -t 10.031264812 -Hs 0 -Hd 7 -Ni 0 -Nx 259.99 -Ny 414.91 -Nz 0.00 -Ne -1.000000 -Nl RTR -Nw --- -Ma 0 -Md 0 -Ms 0 -Mt 0 -Is 0.0 -Id 7.0 -It tcp -Il 1060 -If 2 -Ii 19 -Iv 32 -Pn tcp -Ps 6 -Pa 0 -Pf 0 -Po 0 
r -t 10.041270538 -Hs 7 -Hd 7 -Ni 7 -Nx 416.00 -Ny 341.00 -Nz 0.00 -Ne -1.000000 -Nl AGT -Nw --- -Ma 13a -Md 7 -Ms 0 -Mt 800 -Is 0.0 -Id 7.0 -It tcp -Il 1060 -If 2 -Ii 16 -Iv 32 -Pn tcp -Ps 3 -Pa 0 -Pf 1 -Po 0 
s -t 10.041270538 -Hs 7 -Hd -2 -Ni 7 -Nx 416.00 -Ny 341.00 -Nz 0.00 -Ne -1.000000 -Nl AGT -Nw --- -Ma 0 -Md 0 -Ms 0 -Mt 0 -Is 7.0 -Id 0.0 -It ack -Il 40 -If 2 -Ii 20 -Iv 32 -Pn tcp -Ps 3 -Pa 0 -Pf 0 -Po 0 
r -t 10.041270538 -Hs 7 -Hd -2 -Ni 7 -Nx 416.00 -Ny 341.00 -Nz 0.00 -Ne -1.000000 -Nl RTR -Nw --- -Ma 0 -Md 0 -Ms 0 -Mt 0 -Is 7.0 -Id 0.0 -It ack -Il 40 -If 2 -Ii 20 -Iv 32 -Pn tcp -Ps 3 -Pa 0 -Pf 0 -Po 0 
s -t 10.041270538 -Hs 7 -Hd 0 -Ni 7 -Nx 416.00 -Ny 341.00 -Nz 0.00 -Ne -1.000000 -Nl RTR -Nw --- -Ma 0 -Md 0 -Ms 0 -Mt 0 -Is 7.0 -Id 0.0 -It ack -Il 60 -If 2 -Ii 20 -Iv 32 -Pn tcp -Ps 3 -Pa 0 -Pf 0 -Po 0 
r -t 10.043276264 -Hs 0 -Hd 0 -Ni 0 -Nx 259.99 -Ny 414.87 -Nz 0.00 -Ne -1.000000 -Nl AGT -Nw --- -Ma 13a -Md 0 -Ms 7 -Mt 800 -Is 7.0 -Id 0.0 -It ack -Il 60 -If 2 -Ii 20 -Iv 32 -Pn tcp -Ps 3 -Pa 0 -Pf 1 -Po 0 
s -t 10.043276264 -Hs 0 -Hd -2 -Ni 0 -Nx 259.99 -Ny 414.87 -Nz 0.00 -Ne -1.000000 -Nl AGT -Nw --- -Ma 0 -Md 0 -Ms 0 -Mt 0 -Is 0.0 -Id 7.0 -It tcp -Il 1040 -If 2 -Ii 21 -Iv 32 -Pn tcp -Ps 7 -Pa 0 -Pf 0 -Po 0 
r -t 10.043276264 -Hs 0 -Hd -2 -Ni 0 -Nx 259.99 -Ny 414.87 -Nz 0.00 -Ne -1.000000 -Nl RTR -Nw --- -Ma 0 -Md 0 -Ms 0 -Mt 0 -Is 0.0 -Id 7.0 -It tcp -Il 1040 -If 2 -Ii 21 -Iv 32 -Pn tcp -Ps 7 -Pa 0 -Pf 0 -Po 0 
s -t 10.043276264 -Hs 0 -Hd 7 -Ni 0 -Nx 259.99 -Ny 414.87 -Nz 0.00 -Ne -1.000000 -Nl RTR -Nw --- -Ma 0 -Md 0 -Ms 0 -Mt 0 -Is 0.0 -Id 7.0 -It tcp -Il 1060 -If 2 -Ii 21 -Iv 32 -Pn tcp -Ps 7 -Pa 0 -Pf 0 -Po 0 
s -t 10.043276264 -Hs 0 -Hd -2 -Ni 0 -Nx 259.99 -Ny 414.87 -Nz 0.00 -Ne -1.000000 -Nl AGT -Nw --- -Ma 0 -Md 0 -Ms 0 -Mt 0 -Is 0.0 -Id 7.0 -It tcp -Il 1040 -If 2 -Ii 22 -Iv 32 -Pn tcp -Ps 8 -Pa 0 -Pf 0 -Po 0 
r -t 10.043276264 -Hs 0 -Hd -2 -Ni 0 -Nx 259.99 -Ny 414.87 -Nz 0.00 -Ne -1.000000 -Nl RTR -Nw --- -Ma 0 -Md 0 -Ms 0 -Mt 0 -Is 0.0 -Id 7.0 -It tcp -Il 1040 -If 2 -Ii 22 -Iv 32 -Pn tcp -Ps 8 -Pa 0 -Pf 0 -Po 0 
s -t 10.043276264 -Hs 0 -Hd 7 -Ni 0 -Nx 259.99 -Ny 414.87 -Nz 0.00 -Ne -1.000000 -Nl RTR -Nw --- -Ma 0 -Md 0 -Ms 0 -Mt 0 -Is 0.0 -Id 7.0 -It tcp -Il 1060 -If 2 -Ii 22 -Iv 32 -Pn tcp -Ps 8 -Pa 0 -Pf 0 -Po 0 
r -t 10.053741990 -Hs 7 -Hd 7 -Ni 7 -Nx 416.00 -Ny 341.00 -Nz 0.00 -Ne -1.000000 -Nl AGT -Nw --- -Ma 13a -Md 7 -Ms 0 -Mt 800 -Is 0.0 -Id 7.0 -It tcp -Il 1060 -If 2 -Ii 17 -Iv 32 -Pn tcp -Ps 4 -Pa 0 -Pf 1 -Po 0 
s -t 10.053741990 -Hs 7 -Hd -2 -Ni 7 -Nx 416.00 -Ny 341.00 -Nz 0.00 -Ne -1.000000 -Nl AGT -Nw --- -Ma 0 -Md 0 -Ms 0 -Mt 0 -Is 7.0 -Id 0.0 -It ack -Il 40 -If 2 -Ii 23 -Iv 32 -Pn tcp -Ps 4 -Pa 0 -Pf 0 -Po 0 
r -t 10.053741990 -Hs 7 -Hd -2 -Ni 7 -Nx 416.00 -Ny 341.00 -Nz 0.00 -Ne -1.000000 -Nl RTR -Nw --- -Ma 0 -Md 0 -Ms 0 -Mt 0 -Is 7.0 -Id 0.0 -It ack -Il 40 -If 2 -Ii 23 -Iv 32 -Pn tcp -Ps 4 -Pa 0 -Pf 0 -Po 0 
s -t 10.053741990 -Hs 7 -Hd 0 -Ni 7 -Nx 416.00 -Ny 341.00 -Nz 0.00 -Ne -1.000000 -Nl RTR -Nw --- -Ma 0 -Md 0 -Ms 0 -Mt 0 -Is 7.0 -Id 0.0 -It ack -Il 60 -If 2 -Ii 23 -Iv 32 -Pn tcp -Ps 4 -Pa 0 -Pf 0 -Po 0 
r -t 10.055847716 -Hs 0 -Hd 0 -Ni 0 -Nx 259.99 -Ny 414.83 -Nz 0.00 -Ne -1.000000 -Nl AGT -Nw --- -Ma 13a -Md 0 -Ms 7 -Mt 800 -Is 7.0 -Id 0.0 -It ack -Il 60 -If 2 -Ii 23 -Iv 32 -Pn tcp -Ps 4 -Pa 0 -Pf 1 -Po 0 
s -t 10.055847716 -Hs 0 -Hd -2 -Ni 0 -Nx 259.99 -Ny 414.83 -Nz 0.00 -Ne -1.000000 -Nl AGT -Nw --- -Ma 0 -Md 0 -Ms 0 -Mt 0 -Is 0.0 -Id 7.0 -It tcp -Il 1040 -If 2 -Ii 24 -Iv 32 -Pn tcp -Ps 9 -Pa 0 -Pf 0 -Po 0 
r -t 10.055847716 -Hs 0 -Hd -2 -Ni 0 -Nx 259.99 -Ny 414.83 -Nz 0.00 -Ne -1.000000 -Nl RTR -Nw --- -Ma 0 -Md 0 -Ms 0 -Mt 0 -Is 0.0 -Id 7.0 -It tcp -Il 1040 -If 2 -Ii 24 -Iv 32 -Pn tcp -Ps 9 -Pa 0 -Pf 0 -Po 0 
s -t 10.055847716 -Hs 0 -Hd 7 -Ni 0 -Nx 259.99 -Ny 414.83 -Nz 0.00 -Ne -1.000000 -Nl RTR -Nw --- -Ma 0 -Md 0 -Ms 0 -Mt 0 -Is 0.0 -Id 7.0 -It tcp -Il 1060 -If 2 -Ii 24 -Iv 32 -Pn tcp -Ps 9 -Pa 0 -Pf 0 -Po 0 
s -t 10.055847716 -Hs 0 -Hd -2 -Ni 0 -Nx 259.99 -Ny 414.83 -Nz 0.00 -Ne -1.000000 -Nl AGT -Nw --- -Ma 0 -Md 0 -Ms 0 -Mt 0 -Is 0.0 -Id 7.0 -It tcp -Il 1040 -If 2 -Ii 25 -Iv 32 -Pn tcp -Ps 10 -Pa 0 -Pf 0 -Po 0 
r -t 10.055847716 -Hs 0 -Hd -2 -Ni 0 -Nx 259.99 -Ny 414.83 -Nz 0.00 -Ne -1.000000 -Nl RTR -Nw --- -Ma 0 -Md 0 -Ms 0 -Mt 0 -Is 0.0 -Id 7.0 -It tcp -Il 1040 -If 2 -Ii 25 -Iv 32 -Pn tcp -Ps 10 -Pa 0 -Pf 0 -Po 0 
s -t 10.055847716 -Hs 0 -Hd 7 -Ni 0 -Nx 259.99 -Ny 414.83 -Nz 0.00 -Ne -1.000000 -Nl RTR -Nw --- -Ma 0 -Md 0 -Ms 0 -Mt 0 -Is 0.0 -Id 7.0 -It tcp -Il 1060 -If 2 -Ii 25 -Iv 32 -Pn tcp -Ps 10 -Pa 0 -Pf 0 -Po 0 
r -t 10.066033442 -Hs 7 -Hd 7 -Ni 7 -Nx 416.00 -Ny 341.00 -Nz 0.00 -Ne -1.000000 -Nl AGT -Nw --- -Ma 13a -Md 7 -Ms 0 -Mt 800 -Is 0.0 -Id 7.0 -It tcp -Il 1060 -If 2 -Ii 18 -Iv 32 -Pn tcp -Ps 5 -Pa 0 -Pf 1 -Po 0 
s -t 10.066033442 -Hs 7 -Hd -2 -Ni 7 -Nx 416.00 -Ny 341.00 -Nz 0.00 -Ne -1.000000 -Nl AGT -Nw --- -Ma 0 -Md 0 -Ms 0 -Mt 0 -Is 7.0 -Id 0.0 -It ack -Il 40 -If 2 -Ii 26 -Iv 32 -Pn tcp -Ps 5 -Pa 0 -Pf 0 -Po 0 
r -t 10.066033442 -Hs 7 -Hd -2 -Ni 7 -Nx 416.00 -Ny 341.00 -Nz 0.00 -Ne -1.000000 -Nl RTR -Nw --- -Ma 0 -Md 0 -Ms 0 -Mt 0 -Is 7.0 -Id 0.0 -It ack -Il 40 -If 2 -Ii 26 -Iv 32 -Pn tcp -Ps 5 -Pa 0 -Pf 0 -Po 0 
s -t 10.066033442 -Hs 7 -Hd 0 -Ni 7 -Nx 416.00 -Ny 341.00 -Nz 0.00 -Ne -1.000000 -Nl RTR -Nw --- -Ma 0 -Md 0 -Ms 0 -Mt 0 -Is 7.0 -Id 0.0 -It ack -Il 60 -If 2 -Ii 26 -Iv 32 -Pn tcp -Ps 5 -Pa 0 -Pf 0 -Po 0 
r -t 10.076139743 -Hs 7 -Hd 7 -Ni 7 -Nx 416.00 -Ny 341.00 -Nz 0.00 -Ne -1.000000 -Nl AGT -Nw --- -Ma 13a -Md 7 -Ms 0 -Mt 800 -Is 0.0 -Id 7.0 -It tcp -Il 1060 -If 2 -Ii 19 -Iv 32 -Pn tcp -Ps 6 -Pa 0 -Pf 1 -Po 0 
s -t 10.076139743 -Hs 7 -Hd -2 -Ni 7 -Nx 416.00 -Ny 341.00 -Nz 0.00 -Ne -1.000000 -Nl AGT -Nw --- -Ma 0 -Md 0 -Ms 0 -Mt 0 -Is 7.0 -Id 0.0 -It ack -Il 40 -If 2 -Ii 27 -Iv 32 -Pn tcp -Ps 6 -Pa 0 -Pf 0 -Po 0 
r -t 10.076139743 -Hs 7 -Hd -2 -Ni 7 -Nx 416.00 -Ny 341.00 -Nz 0.00 -Ne -1.000000 -Nl RTR -Nw --- -Ma 0 -Md 0 -Ms 0 -Mt 0 -Is 7.0 -Id 0.0 -It ack -Il 40 -If 2 -Ii 27 -Iv 32 -Pn tcp -Ps 6 -Pa 0 -Pf 0 -Po 0 
s -t 10.076139743 -Hs 7 -Hd 0 -Ni 7 -Nx 416.00 -Ny 341.00 -Nz 0.00 -Ne -1.000000 -Nl RTR -Nw --- -Ma 0 -Md 0 -Ms 0 -Mt 0 -Is 7.0 -Id 0.0 -It ack -Il 60 -If 2 -Ii 27 -Iv 32 -Pn tcp -Ps 6 -Pa 0 -Pf 0 -Po 0 
r -t 10.086326044 -Hs 7 -Hd 7 -Ni 7 -Nx 416.00 -Ny 341.00 -Nz 0.00 -Ne -1.000000 -Nl AGT -Nw --- -Ma 13a -Md 7 -Ms 0 -Mt 800 -Is 0.0 -Id 7.0 -It tcp -Il 1060 -If 2 -Ii 21 -Iv 32 -Pn tcp -Ps 7 -Pa 0 -Pf 1 -Po 0 
s -t 10.086326044 -Hs 7 -Hd -2 -Ni 7 -Nx 416.00 -Ny 341.00 -Nz 0.00 -Ne -1.000000 -Nl AGT -Nw --- -Ma 0 -Md 0 -Ms 0 -Mt 0 -Is 7.0 -Id 0.0 -It ack -Il 40 -If 2 -Ii 28 -Iv 32 -Pn tcp -Ps 7 -Pa 0 -Pf 0 -Po 0 
r -t 10.086326044 -Hs 7 -Hd -2 -Ni 7 -Nx 416.00 -Ny 341.00 -Nz 0.00 -Ne -1.000000 -Nl RTR -Nw --- -Ma 0 -Md 0 -Ms 0 -Mt 0 -Is 7.0 -Id 0.0 -It ack -Il 40 -If 2 -Ii 28 -Iv 32 -Pn tcp -Ps 7 -Pa 0 -Pf 0 -Po 0 
s -t 10.086326044 -Hs 7 -Hd 0 -Ni 7 -Nx 416.00 -Ny 341.00 -Nz 0.00 -Ne -1.000000 -Nl RTR -Nw --- -Ma 0 -Md 0 -Ms 0 -Mt 0 -Is 7.0 -Id 0.0 -It ack -Il 60 -If 2 -Ii 28 -Iv 32 -Pn tcp -Ps 7 -Pa 0 -Pf 0 -Po 0 
r -t 10.096412345 -Hs 7 -Hd 7 -Ni 7 -Nx 416.00 -Ny 341.00 -Nz 0.00 -Ne -1.000000 -Nl AGT -Nw --- -Ma 13a -Md 7 -Ms 0 -Mt 800 -Is 0.0 -Id 7.0 -It tcp -Il 1060 -If 2 -Ii 22 -Iv 32 -Pn tcp -Ps 8 -Pa 0 -Pf 1 -Po 0 
s -t 10.096412345 -Hs 7 -Hd -2 -Ni 7 -Nx 416.00 -Ny 341.00 -Nz 0.00 -Ne -1.000000 -Nl AGT -Nw --- -Ma 0 -Md 0 -Ms 0 -Mt 0 -Is 7.0 -Id 0.0 -It ack -Il 40 -If 2 -Ii 29 -Iv 32 -Pn tcp -Ps 8 -Pa 0 -Pf 0 -Po 0 
r -t 10.096412345 -Hs 7 -Hd -2 -Ni 7 -Nx 416.00 -Ny 341.00 -Nz 0.00 -Ne -1.000000 -Nl RTR -Nw --- -Ma 0 -Md 0 -Ms 0 -Mt 0 -Is 7.0 -Id 0.0 -It ack -Il 40 -If 2 -Ii 29 -Iv 32 -Pn tcp -Ps 8 -Pa 0 -Pf 0 -Po 0 
s -t 10.096412345 -Hs 7 -Hd 0 -Ni 7 -Nx 416.00 -Ny 341.00 -Nz 0.00 -Ne -1.000000 -Nl RTR -Nw --- -Ma 0 -Md 0 -Ms 0 -Mt 0 -Is 7.0 -Id 0.0 -It ack -Il 60 -If 2 -Ii 29 -Iv 32 -Pn tcp -Ps 8 -Pa 0 -Pf 0 -Po 0 
r -t 10.098438071 -Hs 0 -Hd 0 -Ni 0 -Nx 259.98 -Ny 414.71 -Nz 0.00 -Ne -1.000000 -Nl AGT -Nw --- -Ma 13a -Md 0 -Ms 7 -Mt 800 -Is 7.0 -Id 0.0 -It ack -Il 60 -If 2 -Ii 26 -Iv 32 -Pn tcp -Ps 5 -Pa 0 -Pf 1 -Po 0 
s -t 10.098438071 -Hs 0 -Hd -2 -Ni 0 -Nx 259.98 -Ny 414.71 -Nz 0.00 -Ne -1.000000 -Nl AGT -Nw --- -Ma 0 -Md 0 -Ms 0 -Mt 0 -Is 0.0 -Id 7.0 -It tcp -Il 1040 -If 2 -Ii 30 -Iv 32 -Pn tcp -Ps 11 -Pa 0 -Pf 0 -Po 0 
r -t 10.098438071 -Hs 0 -Hd -2 -Ni 0 -Nx 259.98 -Ny 414.71 -Nz 0.00 -Ne -1.000000 -Nl RTR -Nw --- -Ma 0 -Md 0 -Ms 0 -Mt 0 -Is 0.0 -Id 7.0 -It tcp -Il 1040 -If 2 -Ii 30 -Iv 32 -Pn tcp -Ps 11 -Pa 0 -Pf 0 -Po 0 
s -t 10.098438071 -Hs 0 -Hd 7 -Ni 0 -Nx 259.98 -Ny 414.71 -Nz 0.00 -Ne -1.000000 -Nl RTR -Nw --- -Ma 0 -Md 0 -Ms 0 -Mt 0 -Is 0.0 -Id 7.0 -It tcp -Il 1060 -If 2 -Ii 30 -Iv 32 -Pn tcp -Ps 11 -Pa 0 -Pf 0 -Po 0 
s -t 10.098438071 -Hs 0 -Hd -2 -Ni 0 -Nx 259.98 -Ny 414.71 -Nz 0.00 -Ne -1.000000 -Nl AGT -Nw --- -Ma 0 -Md 0 -Ms 0 -Mt 0 -Is 0.0 -Id 7.0 -It tcp -Il 1040 -If 2 -Ii 31 -Iv 32 -Pn tcp -Ps 12 -Pa 0 -Pf 0 -Po 0 
r -t 10.098438071 -Hs 0 -Hd -2 -Ni 0 -Nx 259.98 -Ny 414.71 -Nz 0.00 -Ne -1.000000 -Nl RTR -Nw --- -Ma 0 -Md 0 -Ms 0 -Mt 0 -Is 0.0 -Id 7.0 -It tcp -Il 1040 -If 2 -Ii 31 -Iv 32 -Pn tcp -Ps 12 -Pa 0 -Pf 0 -Po 0 
s -t 10.098438071 -Hs 0 -Hd 7 -Ni 0 -Nx 259.98 -Ny 414.71 -Nz 0.00 -Ne -1.000000 -Nl RTR -Nw --- -Ma 0 -Md 0 -Ms 0 -Mt 0 -Is 0.0 -Id 7.0 -It tcp -Il 1060 -If 2 -Ii 31 -Iv 32 -Pn tcp -Ps 12 -Pa 0 -Pf 0 -Po 0 
r -t 10.108483796 -Hs 7 -Hd 7 -Ni 7 -Nx 416.00 -Ny 341.00 -Nz 0.00 -Ne -1.000000 -Nl AGT -Nw --- -Ma 13a -Md 7 -Ms 0 -Mt 800 -Is 0.0 -Id 7.0 -It tcp -Il 1060 -If 2 -Ii 24 -Iv 32 -Pn tcp -Ps 9 -Pa 0 -Pf 1 -Po 0 
s -t 10.108483796 -Hs 7 -Hd -2 -Ni 7 -Nx 416.00 -Ny 341.00 -Nz 0.00 -Ne -1.000000 -Nl AGT -Nw --- -Ma 0 -Md 0 -Ms 0 -Mt 0 -Is 7.0 -Id 0.0 -It ack -Il 40 -If 2 -Ii 32 -Iv 32 -Pn tcp -Ps 9 -Pa 0 -Pf 0 -Po 0 
r -t 10.108483796 -Hs 7 -Hd -2 -Ni 7 -Nx 416.00 -Ny 341.00 -Nz 0.00 -Ne -1.000000 -Nl RTR -Nw --- -Ma 0 -Md 0 -Ms 0 -Mt 0 -Is 7.0 -Id 0.0 -It ack -Il 40 -If 2 -Ii 32 -Iv 32 -Pn tcp -Ps 9 -Pa 0 -Pf 0 -Po 0 
s -t 10.108483796 -Hs 7 -Hd 0 -Ni 7 -Nx 416.00 -Ny 341.00 -Nz 0.00 -Ne -1.000000 -Nl RTR -Nw --- -Ma 0 -Md 0 -Ms 0 -Mt 0 -Is 7.0 -Id 0.0 -It ack -Il 60 -If 2 -Ii 32 -Iv 32 -Pn tcp -Ps 9 -Pa 0 -Pf 0 -Po 0 
r -t 10.118670097 -Hs 7 -Hd 7 -Ni 7 -Nx 416.00 -Ny 341.00 -Nz 0.00 -Ne -1.000000 -Nl AGT -Nw --- -Ma 13a -Md 7 -Ms 0 -Mt 800 -Is 0.0 -Id 7.0 -It tcp -Il 1060 -If 2 -Ii 25 -Iv 32 -Pn tcp -Ps 10 -Pa 0 -Pf 1 -Po 0 
s -t 10.118670097 -Hs 7 -Hd -2 -Ni 7 -Nx 416.00 -Ny 341.00 -Nz 0.00 -Ne -1.000000 -Nl AGT -Nw --- -Ma 0 -Md 0 -Ms 0 -Mt 0 -Is 7.0 -Id 0.0 -It ack -Il 40 -If 2 -Ii 33 -Iv 32 -Pn tcp -Ps 10 -Pa 0 -Pf 0 -Po 0 
r -t 10.118670097 -Hs 7 -Hd -2 -Ni 7 -Nx 416.00 -Ny 341.00 -Nz 0.00 -Ne -1.000000 -Nl RTR -Nw --- -Ma 0 -Md 0 -Ms 0 -Mt 0 -Is 7.0 -Id 0.0 -It ack -Il 40 -If 2 -Ii 33 -Iv 32 -Pn tcp -Ps 10 -Pa 0 -Pf 0 -Po 0 
s -t 10.118670097 -Hs 7 -Hd 0 -Ni 7 -Nx 416.00 -Ny 341.00 -Nz 0.00 -Ne -1.000000 -Nl RTR -Nw --- -Ma 0 -Md 0 -Ms 0 -Mt 0 -Is 7.0 -Id 0.0 -It ack -Il 60 -If 2 -Ii 33 -Iv 32 -Pn tcp -Ps 10 -Pa 0 -Pf 0 -Po 0 
r -t 10.120675822 -Hs 0 -Hd 0 -Ni 0 -Nx 259.98 -Ny 414.64 -Nz 0.00 -Ne -1.000000 -Nl AGT -Nw --- -Ma 13a -Md 0 -Ms 7 -Mt 800 -Is 7.0 -Id 0.0 -It ack -Il 60 -If 2 -Ii 27 -Iv 32 -Pn tcp -Ps 6 -Pa 0 -Pf 1 -Po 0 
s -t 10.120675822 -Hs 0 -Hd -2 -Ni 0 -Nx 259.98 -Ny 414.64 -Nz 0.00 -Ne -1.000000 -Nl AGT -Nw --- -Ma 0 -Md 0 -Ms 0 -Mt 0 -Is 0.0 -Id 7.0 -It tcp -Il 1040 -If 2 -Ii 34 -Iv 32 -Pn tcp -Ps 13 -Pa 0 -Pf 0 -Po 0 
r -t 10.120675822 -Hs 0 -Hd -2 -Ni 0 -Nx 259.98 -Ny 414.64 -Nz 0.00 -Ne -1.000000 -Nl RTR -Nw --- -Ma 0 -Md 0 -Ms 0 -Mt 0 -Is 0.0 -Id 7.0 -It tcp -Il 1040 -If 2 -Ii 34 -Iv 32 -Pn tcp -Ps 13 -Pa 0 -Pf 0 -Po 0 
s -t 10.120675822 -Hs 0 -Hd 7 -Ni 0 -Nx 259.98 -Ny 414.64 -Nz 0.00 -Ne -1.000000 -Nl RTR -Nw --- -Ma 0 -Md 0 -Ms 0 -Mt 0 -Is 0.0 -Id 7.0 -It tcp -Il 1060 -If 2 -Ii 34 -Iv 32 -Pn tcp -Ps 13 -Pa 0 -Pf 0 -Po 0 
s -t 10.120675822 -Hs 0 -Hd -2 -Ni 0 -Nx 259.98 -Ny 414.64 -Nz 0.00 -Ne -1.000000 -Nl AGT -Nw --- -Ma 0 -Md 0 -Ms 0 -Mt 0 -Is 0.0 -Id 7.0 -It tcp -Il 1040 -If 2 -Ii 35 -Iv 32 -Pn tcp -Ps 14 -Pa 0 -Pf 0 -Po 0 
r -t 10.120675822 -Hs 0 -Hd -2 -Ni 0 -Nx 259.98 -Ny 414.64 -Nz 0.00 -Ne -1.000000 -Nl RTR -Nw --- -Ma 0 -Md 0 -Ms 0 -Mt 0 -Is 0.0 -Id 7.0 -It tcp -Il 1040 -If 2 -Ii 35 -Iv 32 -Pn tcp -Ps 14 -Pa 0 -Pf 0 -Po 0 
s -t 10.120675822 -Hs 0 -Hd 7 -Ni 0 -Nx 259.98 -Ny 414.64 -Nz 0.00 -Ne -1.000000 -Nl RTR -Nw --- -Ma 0 -Md 0 -Ms 0 -Mt 0 -Is 0.0 -Id 7.0 -It tcp -Il 1060 -If 2 -Ii 35 -Iv 32 -Pn tcp -Ps 14 -Pa 0 -Pf 0 -Po 0 
r -t 10.130721547 -Hs 7 -Hd 7 -Ni 7 -Nx 416.00 -Ny 341.00 -Nz 0.00 -Ne -1.000000 -Nl AGT -Nw --- -Ma 13a -Md 7 -Ms 0 -Mt 800 -Is 0.0 -Id 7.0 -It tcp -Il 1060 -If 2 -Ii 30 -Iv 32 -Pn tcp -Ps 11 -Pa 0 -Pf 1 -Po 0 
s -t 10.130721547 -Hs 7 -Hd -2 -Ni 7 -Nx 416.00 -Ny 341.00 -Nz 0.00 -Ne -1.000000 -Nl AGT -Nw --- -Ma 0 -Md 0 -Ms 0 -Mt 0 -Is 7.0 -Id 0.0 -It ack -Il 40 -If 2 -Ii 36 -Iv 32 -Pn tcp -Ps 11 -Pa 0 -Pf 0 -Po 0 