s 0.034797973 _0_ RTR  --- 0 message 32 [0 0 0 0] ------- [0:255 -1:255 32 0] 
s 0.035112973 _0_ MAC  --- 0 message 90 [0 ffffffff 0 800] ------- [0:255 -1:255 32 0] 
r 0.035833368 _6_ MAC  --- 0 message 32 [0 ffffffff 0 800] ------- [0:255 -1:255 32 0] 
r 0.035833425 _5_ MAC  --- 0 message 32 [0 ffffffff 0 800] ------- [0:255 -1:255 32 0] 
r 0.035858368 _6_ RTR  --- 0 message 32 [0 ffffffff 0 800] ------- [0:255 -1:255 32 0] 
r 0.035858425 _5_ RTR  --- 0 message 32 [0 ffffffff 0 800] ------- [0:255 -1:255 32 0] 
s 0.176673288 _1_ RTR  --- 1 message 32 [0 0 0 0] ------- [1:255 -1:255 32 0] 
s 0.177108288 _1_ MAC  --- 1 message 90 [0 ffffffff 1 800] ------- [1:255 -1:255 32 0] 
r 0.177828791 _5_ MAC  --- 1 message 32 [0 ffffffff 1 800] ------- [1:255 -1:255 32 0] 
r 0.177829028 _4_ MAC  --- 1 message 32 [0 ffffffff 1 800] ------- [1:255 -1:255 32 0] 
r 0.177829056 _2_ MAC  --- 1 message 32 [0 ffffffff 1 800] ------- [1:255 -1:255 32 0] 
r 0.177829073 _3_ MAC  --- 1 message 32 [0 ffffffff 1 800] ------- [1:255 -1:255 32 0] 
r 0.177853791 _5_ RTR  --- 1 message 32 [0 ffffffff 1 800] ------- [1:255 -1:255 32 0] 
r 0.177854028 _4_ RTR  --- 1 message 32 [0 ffffffff 1 800] ------- [1:255 -1:255 32 0] 
r 0.177854056 _2_ RTR  --- 1 message 32 [0 ffffffff 1 800] ------- [1:255 -1:255 32 0] 
r 0.177854073 _3_ RTR  --- 1 message 32 [0 ffffffff 1 800] ------- [1:255 -1:255 32 0] 
s 0.473440071 _6_ RTR  --- 2 message 32 [0 0 0 0] ------- [6:255 -1:255 32 0] 
s 0.473855071 _6_ MAC  --- 2 message 90 [0 ffffffff 6 800] ------- [6:255 -1:255 32 0] 
r 0.474575466 _0_ MAC  --- 2 message 32 [0 ffffffff 6 800] ------- [6:255 -1:255 32 0] 
r 0.474575576 _5_ MAC  --- 2 message 32 [0 ffffffff 6 800] ------- [6:255 -1:255 32 0] 
r 0.474575736 _4_ MAC  --- 2 message 32 [0 ffffffff 6 800] ------- [6:255 -1:255 32 0] 
r 0.474600466 _0_ RTR  --- 2 message 32 [0 ffffffff 6 800] ------- [6:255 -1:255 32 0] 
r 0.474600576 _5_ RTR  --- 2 message 32 [0 ffffffff 6 800] ------- [6:255 -1:255 32 0] 
r 0.474600736 _4_ RTR  --- 2 message 32 [0 ffffffff 6 800] ------- [6:255 -1:255 32 0] 
M 0.50000 5 (424.00, 437.00, 0.00), (400.00, 200.00), 20.00
s 0.629410954 _4_ RTR  --- 3 message 32 [0 0 0 0] ------- [4:255 -1:255 32 0] 
s 0.629505954 _4_ MAC  --- 3 message 90 [0 ffffffff 4 800] ------- [4:255 -1:255 32 0] 
r 0.630226619 _6_ MAC  --- 3 message 32 [0 ffffffff 4 800] ------- [4:255 -1:255 32 0] 
r 0.630226693 _1_ MAC  --- 3 message 32 [0 ffffffff 4 800] ------- [4:255 -1:255 32 0] 
r 0.630226725 _5_ MAC  --- 3 message 32 [0 ffffffff 4 800] ------- [4:255 -1:255 32 0] 
r 0.630251619 _6_ RTR  --- 3 message 32 [0 ffffffff 4 800] ------- [4:255 -1:255 32 0] 
r 0.630251693 _1_ RTR  --- 3 message 32 [0 ffffffff 4 800] ------- [4:255 -1:255 32 0] 
r 0.630251725 _5_ RTR  --- 3 message 32 [0 ffffffff 4 800] ------- [4:255 -1:255 32 0] 
s 0.887007923 _2_ RTR  --- 4 message 32 [0 0 0 0] ------- [2:255 -1:255 32 0] 
s 0.887662923 _2_ MAC  --- 4 message 90 [0 ffffffff 2 800] ------- [2:255 -1:255 32 0] 
r 0.888383670 _3_ MAC  --- 4 message 32 [0 ffffffff 2 800] ------- [2:255 -1:255 32 0] 
r 0.888383691 _1_ MAC  --- 4 message 32 [0 ffffffff 2 800] ------- [2:255 -1:255 32 0] 
r 0.888408670 _3_ RTR  --- 4 message 32 [0 ffffffff 2 800] ------- [2:255 -1:255 32 0] 
r 0.888408691 _1_ RTR  --- 4 message 32 [0 ffffffff 2 800] ------- [2:255 -1:255 32 0] 
s 1.600482502 _3_ RTR  --- 5 message 32 [0 0 0 0] ------- [3:255 -1:255 32 0] 
s 1.600597502 _3_ MAC  --- 5 message 90 [0 ffffffff 3 800] ------- [3:255 -1:255 32 0] 
r 1.601318248 _2_ MAC  --- 5 message 32 [0 ffffffff 3 800] ------- [3:255 -1:255 32 0] 
r 1.601318286 _1_ MAC  --- 5 message 32 [0 ffffffff 3 800] ------- [3:255 -1:255 32 0] 
r 1.601343248 _2_ RTR  --- 5 message 32 [0 ffffffff 3 800] ------- [3:255 -1:255 32 0] 
r 1.601343286 _1_ RTR  --- 5 message 32 [0 ffffffff 3 800] ------- [3:255 -1:255 32 0] 
s 1.640574422 _5_ RTR  --- 6 message 32 [0 0 0 0] ------- [5:255 -1:255 32 0] 
s 1.640729422 _5_ MAC  --- 6 message 90 [0 ffffffff 5 800] ------- [5:255 -1:255 32 0] 
r 1.641449872 _6_ MAC  --- 6 message 32 [0 ffffffff 5 800] ------- [5:255 -1:255 32 0] 
r 1.641449880 _0_ MAC  --- 6 message 32 [0 ffffffff 5 800] ------- [5:255 -1:255 32 0] 
r 1.641449921 _1_ MAC  --- 6 message 32 [0 ffffffff 5 800] ------- [5:255 -1:255 32 0] 
r 1.641450129 _4_ MAC  --- 6 message 32 [0 ffffffff 5 800] ------- [5:255 -1:255 32 0] 
r 1.641474872 _6_ RTR  --- 6 message 32 [0 ffffffff 5 800] ------- [5:255 -1:255 32 0] 
r 1.641474880 _0_ RTR  --- 6 message 32 [0 ffffffff 5 800] ------- [5:255 -1:255 32 0] 
r 1.641474921 _1_ RTR  --- 6 message 32 [0 ffffffff 5 800] ------- [5:255 -1:255 32 0] 
r 1.641475129 _4_ RTR  --- 6 message 32 [0 ffffffff 5 800] ------- [5:255 -1:255 32 0] 
s 12.037732077 _5_ RTR  --- 8 message 32 [0 0 0 0] ------- [5:255 -1:255 32 0] 
s 12.038327077 _5_ MAC  --- 8 message 90 [0 ffffffff 5 800] ------- [5:255 -1:255 32 0] 
r 12.039047298 _4_ MAC  --- 8 message 32 [0 ffffffff 5 800] ------- [5:255 -1:255 32 0] 
r 12.039047591 _6_ MAC  --- 8 message 32 [0 ffffffff 5 800] ------- [5:255 -1:255 32 0] 
r 12.039072298 _4_ RTR  --- 8 message 32 [0 ffffffff 5 800] ------- [5:255 -1:255 32 0] 
r 12.039072591 _6_ RTR  --- 8 message 32 [0 ffffffff 5 800] ------- [5:255 -1:255 32 0] 
s 12.039900443 _6_ RTR  --- 7 message 32 [0 0 0 0] ------- [6:255 -1:255 32 0] 
s 12.040175443 _6_ MAC  --- 7 message 90 [0 ffffffff 6 800] ------- [6:255 -1:255 32 0] 
r 12.040895838 _0_ MAC  --- 7 message 32 [0 ffffffff 6 800] ------- [6:255 -1:255 32 0] 
r 12.040895956 _5_ MAC  --- 7 message 32 [0 ffffffff 6 800] ------- [6:255 -1:255 32 0] 
r 12.040896108 _4_ MAC  --- 7 message 32 [0 ffffffff 6 800] ------- [6:255 -1:255 32 0] 
r 12.040920838 _0_ RTR  --- 7 message 32 [0 ffffffff 6 800] ------- [6:255 -1:255 32 0] 
r 12.040920956 _5_ RTR  --- 7 message 32 [0 ffffffff 6 800] ------- [6:255 -1:255 32 0] 
r 12.040921108 _4_ RTR  --- 7 message 32 [0 ffffffff 6 800] ------- [6:255 -1:255 32 0] 
s 12.177962139 _2_ RTR  --- 10 message 32 [0 0 0 0] ------- [2:255 -1:255 32 0] 
s 12.178438054 _4_ RTR  --- 9 message 32 [0 0 0 0] ------- [4:255 -1:255 32 0] 
s 12.178537139 _2_ MAC  --- 10 message 90 [0 ffffffff 2 800] ------- [2:255 -1:255 32 0] 
r 12.179257886 _3_ MAC  --- 10 message 32 [0 ffffffff 2 800] ------- [2:255 -1:255 32 0] 
r 12.179257907 _1_ MAC  --- 10 message 32 [0 ffffffff 2 800] ------- [2:255 -1:255 32 0] 
r 12.179282886 _3_ RTR  --- 10 message 32 [0 ffffffff 2 800] ------- [2:255 -1:255 32 0] 
r 12.179282907 _1_ RTR  --- 10 message 32 [0 ffffffff 2 800] ------- [2:255 -1:255 32 0] 
s 12.179932507 _4_ MAC  --- 9 message 90 [0 ffffffff 4 800] ------- [4:255 -1:255 32 0] 
r 12.180652728 _5_ MAC  --- 9 message 32 [0 ffffffff 4 800] ------- [4:255 -1:255 32 0] 
r 12.180653172 _6_ MAC  --- 9 message 32 [0 ffffffff 4 800] ------- [4:255 -1:255 32 0] 
r 12.180653246 _1_ MAC  --- 9 message 32 [0 ffffffff 4 800] ------- [4:255 -1:255 32 0] 
r 12.180677728 _5_ RTR  --- 9 message 32 [0 ffffffff 4 800] ------- [4:255 -1:255 32 0] 
r 12.180678172 _6_ RTR  --- 9 message 32 [0 ffffffff 4 800] ------- [4:255 -1:255 32 0] 
r 12.180678246 _1_ RTR  --- 9 message 32 [0 ffffffff 4 800] ------- [4:255 -1:255 32 0] 
s 12.183804347 _3_ RTR  --- 11 message 32 [0 0 0 0] ------- [3:255 -1:255 32 0] 
s 12.184359347 _3_ MAC  --- 11 message 90 [0 ffffffff 3 800] ------- [3:255 -1:255 32 0] 
r 12.185080093 _2_ MAC  --- 11 message 32 [0 ffffffff 3 800] ------- [3:255 -1:255 32 0] 
r 12.185080132 _1_ MAC  --- 11 message 32 [0 ffffffff 3 800] ------- [3:255 -1:255 32 0] 
r 12.185105093 _2_ RTR  --- 11 message 32 [0 ffffffff 3 800] ------- [3:255 -1:255 32 0] 
r 12.185105132 _1_ RTR  --- 11 message 32 [0 ffffffff 3 800] ------- [3:255 -1:255 32 0] 
s 12.383489762 _6_ RTR  --- 12 message 44 [0 0 0 0] ------- [6:255 -1:255 32 0] 
s 12.383724762 _6_ MAC  --- 12 message 102 [0 ffffffff 6 800] ------- [6:255 -1:255 32 0] 
r 12.384541157 _0_ MAC  --- 12 message 44 [0 ffffffff 6 800] ------- [6:255 -1:255 32 0] 
r 12.384541293 _5_ MAC  --- 12 message 44 [0 ffffffff 6 800] ------- [6:255 -1:255 32 0] 
r 12.384541428 _4_ MAC  --- 12 message 44 [0 ffffffff 6 800] ------- [6:255 -1:255 32 0] 
r 12.384566157 _0_ RTR  --- 12 message 44 [0 ffffffff 6 800] ------- [6:255 -1:255 32 0] 
r 12.384566293 _5_ RTR  --- 12 message 44 [0 ffffffff 6 800] ------- [6:255 -1:255 32 0] 
r 12.384566428 _4_ RTR  --- 12 message 44 [0 ffffffff 6 800] ------- [6:255 -1:255 32 0] 
s 12.437731363 _0_ RTR  --- 13 message 32 [0 0 0 0] ------- [0:255 -1:255 32 0] 
s 12.437806363 _0_ MAC  --- 13 message 90 [0 ffffffff 0 800] ------- [0:255 -1:255 32 0] 
r 12.438526758 _6_ MAC  --- 13 message 32 [0 ffffffff 0 800] ------- [0:255 -1:255 32 0] 
r 12.438551758 _6_ RTR  --- 13 message 32 [0 ffffffff 0 800] ------- [0:255 -1:255 32 0] 
s 12.639719855 _1_ RTR  --- 14 message 32 [0 0 0 0] ------- [1:255 -1:255 32 0] 
s 12.640074855 _1_ MAC  --- 14 message 90 [0 ffffffff 1 800] ------- [1:255 -1:255 32 0] 
r 12.640795595 _4_ MAC  --- 14 message 32 [0 ffffffff 1 800] ------- [1:255 -1:255 32 0] 
r 12.640795623 _2_ MAC  --- 14 message 32 [0 ffffffff 1 800] ------- [1:255 -1:255 32 0] 
r 12.640795640 _3_ MAC  --- 14 message 32 [0 ffffffff 1 800] ------- [1:255 -1:255 32 0] 
r 12.640820595 _4_ RTR  --- 14 message 32 [0 ffffffff 1 800] ------- [1:255 -1:255 32 0] 
r 12.640820623 _2_ RTR  --- 14 message 32 [0 ffffffff 1 800] ------- [1:255 -1:255 32 0] 
r 12.640820640 _3_ RTR  --- 14 message 32 [0 ffffffff 1 800] ------- [1:255 -1:255 32 0] 
s 12.850702724 _4_ RTR  --- 15 message 44 [0 0 0 0] ------- [4:255 -1:255 32 0] 
s 12.850897724 _4_ MAC  --- 15 message 102 [0 ffffffff 4 800] ------- [4:255 -1:255 32 0] 
r 12.851713949 _5_ MAC  --- 15 message 44 [0 ffffffff 4 800] ------- [4:255 -1:255 32 0] 
r 12.851714389 _6_ MAC  --- 15 message 44 [0 ffffffff 4 800] ------- [4:255 -1:255 32 0] 
r 12.851714464 _1_ MAC  --- 15 message 44 [0 ffffffff 4 800] ------- [4:255 -1:255 32 0] 
r 12.851738949 _5_ RTR  --- 15 message 44 [0 ffffffff 4 800] ------- [4:255 -1:255 32 0] 
r 12.851739389 _6_ RTR  --- 15 message 44 [0 ffffffff 4 800] ------- [4:255 -1:255 32 0] 
r 12.851739464 _1_ RTR  --- 15 message 44 [0 ffffffff 4 800] ------- [4:255 -1:255 32 0] 
s 13.040775642 _5_ RTR  --- 16 message 44 [0 0 0 0] ------- [5:255 -1:255 32 0] 
s 13.041310642 _5_ MAC  --- 16 message 102 [0 ffffffff 5 800] ------- [5:255 -1:255 32 0] 
r 13.042126866 _4_ MAC  --- 16 message 44 [0 ffffffff 5 800] ------- [5:255 -1:255 32 0] 
r 13.042127174 _6_ MAC  --- 16 message 44 [0 ffffffff 5 800] ------- [5:255 -1:255 32 0] 
r 13.042151866 _4_ RTR  --- 16 message 44 [0 ffffffff 5 800] ------- [5:255 -1:255 32 0] 
r 13.042152174 _6_ RTR  --- 16 message 44 [0 ffffffff 5 800] ------- [5:255 -1:255 32 0] 
s 13.183183059 _3_ RTR  --- 17 message 44 [0 0 0 0] ------- [3:255 -1:255 32 0] 
s 13.183358059 _3_ MAC  --- 17 message 102 [0 ffffffff 3 800] ------- [3:255 -1:255 32 0] 
r 13.184174805 _2_ MAC  --- 17 message 44 [0 ffffffff 3 800] ------- [3:255 -1:255 32 0] 
r 13.184174844 _1_ MAC  --- 17 message 44 [0 ffffffff 3 800] ------- [3:255 -1:255 32 0] 
r 13.184199805 _2_ RTR  --- 17 message 44 [0 ffffffff 3 800] ------- [3:255 -1:255 32 0] 
r 13.184199844 _1_ RTR  --- 17 message 44 [0 ffffffff 3 800] ------- [3:255 -1:255 32 0] 
s 13.602225249 _2_ RTR  --- 20 message 44 [0 0 0 0] ------- [2:255 -1:255 32 0] 
s 13.602500249 _2_ MAC  --- 20 message 102 [0 ffffffff 2 800] ------- [2:255 -1:255 32 0] 
r 13.603316996 _3_ MAC  --- 20 message 44 [0 ffffffff 2 800] ------- [2:255 -1:255 32 0] 
r 13.603317017 _1_ MAC  --- 20 message 44 [0 ffffffff 2 800] ------- [2:255 -1:255 32 0] 
r 13.603341996 _3_ RTR  --- 20 message 44 [0 ffffffff 2 800] ------- [2:255 -1:255 32 0] 
r 13.603342017 _1_ RTR  --- 20 message 44 [0 ffffffff 2 800] ------- [2:255 -1:255 32 0] 
s 13.637532111 _1_ RTR  --- 21 message 44 [0 0 0 0] ------- [1:255 -1:255 32 0] 
s 13.638207111 _1_ MAC  --- 21 message 102 [0 ffffffff 1 800] ------- [1:255 -1:255 32 0] 
r 13.639023850 _4_ MAC  --- 21 message 44 [0 ffffffff 1 800] ------- [1:255 -1:255 32 0] 
r 13.639023878 _2_ MAC  --- 21 message 44 [0 ffffffff 1 800] ------- [1:255 -1:255 32 0] 
r 13.639023896 _3_ MAC  --- 21 message 44 [0 ffffffff 1 800] ------- [1:255 -1:255 32 0] 
r 13.639048850 _4_ RTR  --- 21 message 44 [0 ffffffff 1 800] ------- [1:255 -1:255 32 0] 
r 13.639048878 _2_ RTR  --- 21 message 44 [0 ffffffff 1 800] ------- [1:255 -1:255 32 0] 
r 13.639048896 _3_ RTR  --- 21 message 44 [0 ffffffff 1 800] ------- [1:255 -1:255 32 0] 
s 13.648833278 _6_ RTR  --- 22 message 32 [0 0 0 0] ------- [6:255 -1:255 32 0] 
s 13.649028278 _6_ MAC  --- 22 message 90 [0 ffffffff 6 800] ------- [6:255 -1:255 32 0] 
s 13.649494998 _0_ RTR  --- 23 message 32 [0 0 0 0] ------- [0:255 -1:255 32 0] 
r 13.649748672 _0_ MAC  --- 22 message 32 [0 ffffffff 6 800] ------- [6:255 -1:255 32 0] 
r 13.649748810 _5_ MAC  --- 22 message 32 [0 ffffffff 6 800] ------- [6:255 -1:255 32 0] 
r 13.649748943 _4_ MAC  --- 22 message 32 [0 ffffffff 6 800] ------- [6:255 -1:255 32 0] 
r 13.649773672 _0_ RTR  --- 22 message 32 [0 ffffffff 6 800] ------- [6:255 -1:255 32 0] 
r 13.649773810 _5_ RTR  --- 22 message 32 [0 ffffffff 6 800] ------- [6:255 -1:255 32 0] 
r 13.649773943 _4_ RTR  --- 22 message 32 [0 ffffffff 6 800] ------- [6:255 -1:255 32 0] 
s 13.650398672 _0_ MAC  --- 23 message 90 [0 ffffffff 0 800] ------- [0:255 -1:255 32 0] 
r 13.651119067 _6_ MAC  --- 23 message 32 [0 ffffffff 0 800] ------- [0:255 -1:255 32 0] 
r 13.651144067 _6_ RTR  --- 23 message 32 [0 ffffffff 0 800] ------- [0:255 -1:255 32 0] 
s 13.759542271 _3_ RTR  --- 24 message 56 [0 0 0 0] ------- [3:255 -1:255 32 0] 
s 13.759917271 _3_ MAC  --- 24 message 114 [0 ffffffff 3 800] ------- [3:255 -1:255 32 0] 
r 13.760830017 _2_ MAC  --- 24 message 56 [0 ffffffff 3 800] ------- [3:255 -1:255 32 0] 
r 13.760830056 _1_ MAC  --- 24 message 56 [0 ffffffff 3 800] ------- [3:255 -1:255 32 0] 
r 13.760855017 _2_ RTR  --- 24 message 56 [0 ffffffff 3 800] ------- [3:255 -1:255 32 0] 
r 13.760855056 _1_ RTR  --- 24 message 56 [0 ffffffff 3 800] ------- [3:255 -1:255 32 0] 
s 13.830235103 _1_ RTR  --- 25 message 56 [0 0 0 0] ------- [1:255 -1:255 32 0] 
s 13.830530103 _1_ MAC  --- 25 message 114 [0 ffffffff 1 800] ------- [1:255 -1:255 32 0] 
r 13.831442842 _4_ MAC  --- 25 message 56 [0 ffffffff 1 800] ------- [1:255 -1:255 32 0] 
r 13.831442870 _2_ MAC  --- 25 message 56 [0 ffffffff 1 800] ------- [1:255 -1:255 32 0] 
r 13.831442888 _3_ MAC  --- 25 message 56 [0 ffffffff 1 800] ------- [1:255 -1:255 32 0] 
r 13.831467842 _4_ RTR  --- 25 message 56 [0 ffffffff 1 800] ------- [1:255 -1:255 32 0] 
r 13.831467870 _2_ RTR  --- 25 message 56 [0 ffffffff 1 800] ------- [1:255 -1:255 32 0] 
r 13.831467888 _3_ RTR  --- 25 message 56 [0 ffffffff 1 800] ------- [1:255 -1:255 32 0] 
s 13.850710249 _4_ RTR  --- 26 message 32 [0 0 0 0] ------- [4:255 -1:255 32 0] 
s 13.851225249 _4_ MAC  --- 26 message 90 [0 ffffffff 4 800] ------- [4:255 -1:255 32 0] 
r 13.851945474 _5_ MAC  --- 26 message 32 [0 ffffffff 4 800] ------- [4:255 -1:255 32 0] 
r 13.851945915 _6_ MAC  --- 26 message 32 [0 ffffffff 4 800] ------- [4:255 -1:255 32 0] 
r 13.851945989 _1_ MAC  --- 26 message 32 [0 ffffffff 4 800] ------- [4:255 -1:255 32 0] 
r 13.851970474 _5_ RTR  --- 26 message 32 [0 ffffffff 4 800] ------- [4:255 -1:255 32 0] 
r 13.851970915 _6_ RTR  --- 26 message 32 [0 ffffffff 4 800] ------- [4:255 -1:255 32 0] 
r 13.851970989 _1_ RTR  --- 26 message 32 [0 ffffffff 4 800] ------- [4:255 -1:255 32 0] 
s 14.732149859 _2_ RTR  --- 27 message 32 [0 0 0 0] ------- [2:255 -1:255 32 0] 
s 14.732444859 _2_ MAC  --- 27 message 90 [0 ffffffff 2 800] ------- [2:255 -1:255 32 0] 
r 14.733165605 _3_ MAC  --- 27 message 32 [0 ffffffff 2 800] ------- [2:255 -1:255 32 0] 
r 14.733165626 _1_ MAC  --- 27 message 32 [0 ffffffff 2 800] ------- [2:255 -1:255 32 0] 
r 14.733190605 _3_ RTR  --- 27 message 32 [0 ffffffff 2 800] ------- [2:255 -1:255 32 0] 
r 14.733190626 _1_ RTR  --- 27 message 32 [0 ffffffff 2 800] ------- [2:255 -1:255 32 0] 
s 16.285310187 _5_ RTR  --- 29 message 56 [0 0 0 0] ------- [5:255 -1:255 32 0] 
s 16.285705187 _5_ MAC  --- 29 message 114 [0 ffffffff 5 800] ------- [5:255 -1:255 32 0] 
r 16.286617411 _4_ MAC  --- 29 message 56 [0 ffffffff 5 800] ------- [5:255 -1:255 32 0] 
r 16.286617719 _6_ MAC  --- 29 message 56 [0 ffffffff 5 800] ------- [5:255 -1:255 32 0] 
r 16.286642411 _4_ RTR  --- 29 message 56 [0 ffffffff 5 800] ------- [5:255 -1:255 32 0] 
r 16.286642719 _6_ RTR  --- 29 message 56 [0 ffffffff 5 800] ------- [5:255 -1:255 32 0] 
s 24.039391712 _4_ RTR  --- 30 message 44 [0 0 0 0] ------- [4:255 -1:255 32 0] 
s 24.039786712 _4_ MAC  --- 30 message 102 [0 ffffffff 4 800] ------- [4:255 -1:255 32 0] 
r 24.040602937 _5_ MAC  --- 30 message 44 [0 ffffffff 4 800] ------- [4:255 -1:255 32 0] 
r 24.040603378 _6_ MAC  --- 30 message 44 [0 ffffffff 4 800] ------- [4:255 -1:255 32 0] 
r 24.040603452 _1_ MAC  --- 30 message 44 [0 ffffffff 4 800] ------- [4:255 -1:255 32 0] 
r 24.040627937 _5_ RTR  --- 30 message 44 [0 ffffffff 4 800] ------- [4:255 -1:255 32 0] 
r 24.040628378 _6_ RTR  --- 30 message 44 [0 ffffffff 4 800] ------- [4:255 -1:255 32 0] 
r 24.040628452 _1_ RTR  --- 30 message 44 [0 ffffffff 4 800] ------- [4:255 -1:255 32 0] 
s 24.188574456 _6_ RTR  --- 31 message 56 [0 0 0 0] ------- [6:255 -1:255 32 0] 
s 24.188909456 _6_ MAC  --- 31 message 114 [0 ffffffff 6 800] ------- [6:255 -1:255 32 0] 
r 24.189821850 _0_ MAC  --- 31 message 56 [0 ffffffff 6 800] ------- [6:255 -1:255 32 0] 
r 24.189821988 _5_ MAC  --- 31 message 56 [0 ffffffff 6 800] ------- [6:255 -1:255 32 0] 
r 24.189822121 _4_ MAC  --- 31 message 56 [0 ffffffff 6 800] ------- [6:255 -1:255 32 0] 
r 24.189846850 _0_ RTR  --- 31 message 56 [0 ffffffff 6 800] ------- [6:255 -1:255 32 0] 
r 24.189846988 _5_ RTR  --- 31 message 56 [0 ffffffff 6 800] ------- [6:255 -1:255 32 0] 
r 24.189847121 _4_ RTR  --- 31 message 56 [0 ffffffff 6 800] ------- [6:255 -1:255 32 0] 
s 24.608639909 _6_ RTR  --- 32 message 68 [0 0 0 0] ------- [6:255 -1:255 32 0] 
s 24.609234909 _6_ MAC  --- 32 message 126 [0 ffffffff 6 800] ------- [6:255 -1:255 32 0] 
r 24.610243304 _0_ MAC  --- 32 message 68 [0 ffffffff 6 800] ------- [6:255 -1:255 32 0] 
r 24.610243441 _5_ MAC  --- 32 message 68 [0 ffffffff 6 800] ------- [6:255 -1:255 32 0] 
r 24.610243574 _4_ MAC  --- 32 message 68 [0 ffffffff 6 800] ------- [6:255 -1:255 32 0] 
r 24.610268304 _0_ RTR  --- 32 message 68 [0 ffffffff 6 800] ------- [6:255 -1:255 32 0] 
r 24.610268441 _5_ RTR  --- 32 message 68 [0 ffffffff 6 800] ------- [6:255 -1:255 32 0] 
r 24.610268574 _4_ RTR  --- 32 message 68 [0 ffffffff 6 800] ------- [6:255 -1:255 32 0] 
s 24.642012411 _3_ RTR  --- 34 message 44 [0 0 0 0] ------- [3:255 -1:255 32 0] 
s 24.642107411 _3_ MAC  --- 34 message 102 [0 ffffffff 3 800] ------- [3:255 -1:255 32 0] 
r 24.642924158 _2_ MAC  --- 34 message 44 [0 ffffffff 3 800] ------- [3:255 -1:255 32 0] 
r 24.642924196 _1_ MAC  --- 34 message 44 [0 ffffffff 3 800] ------- [3:255 -1:255 32 0] 
r 24.642949158 _2_ RTR  --- 34 message 44 [0 ffffffff 3 800] ------- [3:255 -1:255 32 0] 
r 24.642949196 _1_ RTR  --- 34 message 44 [0 ffffffff 3 800] ------- [3:255 -1:255 32 0] 
s 24.644132743 _2_ RTR  --- 33 message 56 [0 0 0 0] ------- [2:255 -1:255 32 0] 
s 24.644467743 _2_ MAC  --- 33 message 114 [0 ffffffff 2 800] ------- [2:255 -1:255 32 0] 
r 24.645380489 _3_ MAC  --- 33 message 56 [0 ffffffff 2 800] ------- [2:255 -1:255 32 0] 
r 24.645380510 _1_ MAC  --- 33 message 56 [0 ffffffff 2 800] ------- [2:255 -1:255 32 0] 
r 24.645405489 _3_ RTR  --- 33 message 56 [0 ffffffff 2 800] ------- [2:255 -1:255 32 0] 
r 24.645405510 _1_ RTR  --- 33 message 56 [0 ffffffff 2 800] ------- [2:255 -1:255 32 0] 
s 24.768057579 _4_ RTR  --- 35 message 44 [0 0 0 0] ------- [4:255 -1:255 32 0] 
s 24.768572579 _4_ MAC  --- 35 message 102 [0 ffffffff 4 800] ------- [4:255 -1:255 32 0] 
r 24.769388804 _5_ MAC  --- 35 message 44 [0 ffffffff 4 800] ------- [4:255 -1:255 32 0] 
r 24.769389245 _6_ MAC  --- 35 message 44 [0 ffffffff 4 800] ------- [4:255 -1:255 32 0] 
r 24.769389319 _1_ MAC  --- 35 message 44 [0 ffffffff 4 800] ------- [4:255 -1:255 32 0] 
r 24.769413804 _5_ RTR  --- 35 message 44 [0 ffffffff 4 800] ------- [4:255 -1:255 32 0] 
r 24.769414245 _6_ RTR  --- 35 message 44 [0 ffffffff 4 800] ------- [4:255 -1:255 32 0] 
r 24.769414319 _1_ RTR  --- 35 message 44 [0 ffffffff 4 800] ------- [4:255 -1:255 32 0] 
s 24.921123434 _0_ RTR  --- 36 message 44 [0 0 0 0] ------- [0:255 -1:255 32 0] 
s 24.921378434 _0_ MAC  --- 36 message 102 [0 ffffffff 0 800] ------- [0:255 -1:255 32 0] 
r 24.922194829 _6_ MAC  --- 36 message 44 [0 ffffffff 0 800] ------- [0:255 -1:255 32 0] 
r 24.922219829 _6_ RTR  --- 36 message 44 [0 ffffffff 0 800] ------- [0:255 -1:255 32 0] 
s 25.077798476 _1_ RTR  --- 37 message 56 [0 0 0 0] ------- [1:255 -1:255 32 0] 
s 25.078113476 _1_ MAC  --- 37 message 114 [0 ffffffff 1 800] ------- [1:255 -1:255 32 0] 
r 25.079026215 _4_ MAC  --- 37 message 56 [0 ffffffff 1 800] ------- [1:255 -1:255 32 0] 
r 25.079026243 _2_ MAC  --- 37 message 56 [0 ffffffff 1 800] ------- [1:255 -1:255 32 0] 
r 25.079026260 _3_ MAC  --- 37 message 56 [0 ffffffff 1 800] ------- [1:255 -1:255 32 0] 
r 25.079051215 _4_ RTR  --- 37 message 56 [0 ffffffff 1 800] ------- [1:255 -1:255 32 0] 
r 25.079051243 _2_ RTR  --- 37 message 56 [0 ffffffff 1 800] ------- [1:255 -1:255 32 0] 
r 25.079051260 _3_ RTR  --- 37 message 56 [0 ffffffff 1 800] ------- [1:255 -1:255 32 0] 
s 25.571148641 _3_ RTR  --- 38 message 56 [0 0 0 0] ------- [3:255 -1:255 32 0] 
s 25.571763641 _3_ MAC  --- 38 message 114 [0 ffffffff 3 800] ------- [3:255 -1:255 32 0] 
r 25.572676387 _2_ MAC  --- 38 message 56 [0 ffffffff 3 800] ------- [3:255 -1:255 32 0] 
r 25.572676426 _1_ MAC  --- 38 message 56 [0 ffffffff 3 800] ------- [3:255 -1:255 32 0] 
r 25.572701387 _2_ RTR  --- 38 message 56 [0 ffffffff 3 800] ------- [3:255 -1:255 32 0] 
r 25.572701426 _1_ RTR  --- 38 message 56 [0 ffffffff 3 800] ------- [3:255 -1:255 32 0] 
s 25.764569768 _4_ RTR  --- 39 message 32 [0 0 0 0] ------- [4:255 -1:255 32 0] 
s 25.765224768 _4_ MAC  --- 39 message 90 [0 ffffffff 4 800] ------- [4:255 -1:255 32 0] 
r 25.765944992 _5_ MAC  --- 39 message 32 [0 ffffffff 4 800] ------- [4:255 -1:255 32 0] 
r 25.765945433 _6_ MAC  --- 39 message 32 [0 ffffffff 4 800] ------- [4:255 -1:255 32 0] 
r 25.765945507 _1_ MAC  --- 39 message 32 [0 ffffffff 4 800] ------- [4:255 -1:255 32 0] 
r 25.765969992 _5_ RTR  --- 39 message 32 [0 ffffffff 4 800] ------- [4:255 -1:255 32 0] 
r 25.765970433 _6_ RTR  --- 39 message 32 [0 ffffffff 4 800] ------- [4:255 -1:255 32 0] 
r 25.765970507 _1_ RTR  --- 39 message 32 [0 ffffffff 4 800] ------- [4:255 -1:255 32 0] 
s 25.837838665 _2_ RTR  --- 40 message 44 [0 0 0 0] ------- [2:255 -1:255 32 0] 
s 25.838053665 _2_ MAC  --- 40 message 102 [0 ffffffff 2 800] ------- [2:255 -1:255 32 0] 
r 25.838870411 _3_ MAC  --- 40 message 44 [0 ffffffff 2 800] ------- [2:255 -1:255 32 0] 
r 25.838870432 _1_ MAC  --- 40 message 44 [0 ffffffff 2 800] ------- [2:255 -1:255 32 0] 
r 25.838895411 _3_ RTR  --- 40 message 44 [0 ffffffff 2 800] ------- [2:255 -1:255 32 0] 
r 25.838895432 _1_ RTR  --- 40 message 44 [0 ffffffff 2 800] ------- [2:255 -1:255 32 0] 
s 26.569782059 _3_ RTR  --- 41 message 32 [0 0 0 0] ------- [3:255 -1:255 32 0] 
s 26.569957059 _3_ MAC  --- 41 message 90 [0 ffffffff 3 800] ------- [3:255 -1:255 32 0] 
r 26.570677806 _2_ MAC  --- 41 message 32 [0 ffffffff 3 800] ------- [3:255 -1:255 32 0] 
r 26.570677844 _1_ MAC  --- 41 message 32 [0 ffffffff 3 800] ------- [3:255 -1:255 32 0] 
r 26.570702806 _2_ RTR  --- 41 message 32 [0 ffffffff 3 800] ------- [3:255 -1:255 32 0] 
r 26.570702844 _1_ RTR  --- 41 message 32 [0 ffffffff 3 800] ------- [3:255 -1:255 32 0] 
s 27.131220416 _2_ RTR  --- 42 message 56 [0 0 0 0] ------- [2:255 -1:255 32 0] 
s 27.131795416 _2_ MAC  --- 42 message 114 [0 ffffffff 2 800] ------- [2:255 -1:255 32 0] 
r 27.132708162 _3_ MAC  --- 42 message 56 [0 ffffffff 2 800] ------- [2:255 -1:255 32 0] 
r 27.132708183 _1_ MAC  --- 42 message 56 [0 ffffffff 2 800] ------- [2:255 -1:255 32 0] 
r 27.132733162 _3_ RTR  --- 42 message 56 [0 ffffffff 2 800] ------- [2:255 -1:255 32 0] 
r 27.132733183 _1_ RTR  --- 42 message 56 [0 ffffffff 2 800] ------- [2:255 -1:255 32 0] 
s 30.835931474 _5_ RTR  --- 43 message 32 [0 0 0 0] ------- [5:255 -1:255 32 0] 
s 30.836366474 _5_ MAC  --- 43 message 90 [0 ffffffff 5 800] ------- [5:255 -1:255 32 0] 
r 30.837086699 _4_ MAC  --- 43 message 32 [0 ffffffff 5 800] ------- [5:255 -1:255 32 0] 
r 30.837087007 _6_ MAC  --- 43 message 32 [0 ffffffff 5 800] ------- [5:255 -1:255 32 0] 
r 30.837111699 _4_ RTR  --- 43 message 32 [0 ffffffff 5 800] ------- [5:255 -1:255 32 0] 
r 30.837112007 _6_ RTR  --- 43 message 32 [0 ffffffff 5 800] ------- [5:255 -1:255 32 0] 
s 35.926271478 _6_ RTR  --- 44 message 68 [0 0 0 0] ------- [6:255 -1:255 32 0] 
s 35.926486478 _6_ MAC  --- 44 message 126 [0 ffffffff 6 800] ------- [6:255 -1:255 32 0] 
r 35.927494873 _0_ MAC  --- 44 message 68 [0 ffffffff 6 800] ------- [6:255 -1:255 32 0] 
r 35.927495010 _5_ MAC  --- 44 message 68 [0 ffffffff 6 800] ------- [6:255 -1:255 32 0] 
r 35.927495143 _4_ MAC  --- 44 message 68 [0 ffffffff 6 800] ------- [6:255 -1:255 32 0] 
r 35.927519873 _0_ RTR  --- 44 message 68 [0 ffffffff 6 800] ------- [6:255 -1:255 32 0] 
r 35.927520010 _5_ RTR  --- 44 message 68 [0 ffffffff 6 800] ------- [6:255 -1:255 32 0] 
r 35.927520143 _4_ RTR  --- 44 message 68 [0 ffffffff 6 800] ------- [6:255 -1:255 32 0] 
s 36.045423614 _1_ RTR  --- 45 message 92 [0 0 0 0] ------- [1:255 -1:255 32 0] 
s 36.045978614 _1_ MAC  --- 45 message 150 [0 ffffffff 1 800] ------- [1:255 -1:255 32 0] 
r 36.047179353 _4_ MAC  --- 45 message 92 [0 ffffffff 1 800] ------- [1:255 -1:255 32 0] 
r 36.047179381 _2_ MAC  --- 45 message 92 [0 ffffffff 1 800] ------- [1:255 -1:255 32 0] 
r 36.047179399 _3_ MAC  --- 45 message 92 [0 ffffffff 1 800] ------- [1:255 -1:255 32 0] 
r 36.047204353 _4_ RTR  --- 45 message 92 [0 ffffffff 1 800] ------- [1:255 -1:255 32 0] 
r 36.047204381 _2_ RTR  --- 45 message 92 [0 ffffffff 1 800] ------- [1:255 -1:255 32 0] 
r 36.047204399 _3_ RTR  --- 45 message 92 [0 ffffffff 1 800] ------- [1:255 -1:255 32 0] 
s 37.047382227 _1_ RTR  --- 48 message 32 [0 0 0 0] ------- [1:255 -1:255 32 0] 
s 37.047537227 _1_ MAC  --- 48 message 90 [0 ffffffff 1 800] ------- [1:255 -1:255 32 0] 
r 37.048257967 _4_ MAC  --- 48 message 32 [0 ffffffff 1 800] ------- [1:255 -1:255 32 0] 
r 37.048257995 _2_ MAC  --- 48 message 32 [0 ffffffff 1 800] ------- [1:255 -1:255 32 0] 
r 37.048258012 _3_ MAC  --- 48 message 32 [0 ffffffff 1 800] ------- [1:255 -1:255 32 0] 
r 37.048282967 _4_ RTR  --- 48 message 32 [0 ffffffff 1 800] ------- [1:255 -1:255 32 0] 
r 37.048282995 _2_ RTR  --- 48 message 32 [0 ffffffff 1 800] ------- [1:255 -1:255 32 0] 
r 37.048283012 _3_ RTR  --- 48 message 32 [0 ffffffff 1 800] ------- [1:255 -1:255 32 0] 
s 37.768617476 _5_ RTR  --- 49 message 56 [0 0 0 0] ------- [5:255 -1:255 32 0] 
s 37.769012476 _5_ MAC  --- 49 message 114 [0 ffffffff 5 800] ------- [5:255 -1:255 32 0] 
s 37.769756806 _6_ RTR  --- 50 message 32 [0 0 0 0] ------- [6:255 -1:255 32 0] 
r 37.769924701 _4_ MAC  --- 49 message 56 [0 ffffffff 5 800] ------- [5:255 -1:255 32 0] 
r 37.769925009 _6_ MAC  --- 49 message 56 [0 ffffffff 5 800] ------- [5:255 -1:255 32 0] 
r 37.769949701 _4_ RTR  --- 49 message 56 [0 ffffffff 5 800] ------- [5:255 -1:255 32 0] 
r 37.769950009 _6_ RTR  --- 49 message 56 [0 ffffffff 5 800] ------- [5:255 -1:255 32 0] 
s 37.770455009 _6_ MAC  --- 50 message 90 [0 ffffffff 6 800] ------- [6:255 -1:255 32 0] 
r 37.771175403 _0_ MAC  --- 50 message 32 [0 ffffffff 6 800] ------- [6:255 -1:255 32 0] 
r 37.771175541 _5_ MAC  --- 50 message 32 [0 ffffffff 6 800] ------- [6:255 -1:255 32 0] 
r 37.771175674 _4_ MAC  --- 50 message 32 [0 ffffffff 6 800] ------- [6:255 -1:255 32 0] 
r 37.771200403 _0_ RTR  --- 50 message 32 [0 ffffffff 6 800] ------- [6:255 -1:255 32 0] 
r 37.771200541 _5_ RTR  --- 50 message 32 [0 ffffffff 6 800] ------- [6:255 -1:255 32 0] 
r 37.771200674 _4_ RTR  --- 50 message 32 [0 ffffffff 6 800] ------- [6:255 -1:255 32 0] 
s 38.774348002 _4_ RTR  --- 51 message 32 [0 0 0 0] ------- [4:255 -1:255 32 0] 
s 38.775023002 _4_ MAC  --- 51 message 90 [0 ffffffff 4 800] ------- [4:255 -1:255 32 0] 
r 38.775743227 _5_ MAC  --- 51 message 32 [0 ffffffff 4 800] ------- [4:255 -1:255 32 0] 
r 38.775743667 _6_ MAC  --- 51 message 32 [0 ffffffff 4 800] ------- [4:255 -1:255 32 0] 
r 38.775743742 _1_ MAC  --- 51 message 32 [0 ffffffff 4 800] ------- [4:255 -1:255 32 0] 
r 38.775768227 _5_ RTR  --- 51 message 32 [0 ffffffff 4 800] ------- [4:255 -1:255 32 0] 
r 38.775768667 _6_ RTR  --- 51 message 32 [0 ffffffff 4 800] ------- [4:255 -1:255 32 0] 
r 38.775768742 _1_ RTR  --- 51 message 32 [0 ffffffff 4 800] ------- [4:255 -1:255 32 0] 
s 39.356524191 _0_ RTR  --- 52 message 44 [0 0 0 0] ------- [0:255 -1:255 32 0] 
s 39.356979191 _0_ MAC  --- 52 message 102 [0 ffffffff 0 800] ------- [0:255 -1:255 32 0] 
r 39.357795586 _6_ MAC  --- 52 message 44 [0 ffffffff 0 800] ------- [0:255 -1:255 32 0] 
r 39.357820586 _6_ RTR  --- 52 message 44 [0 ffffffff 0 800] ------- [0:255 -1:255 32 0] 
s 39.464197737 _3_ RTR  --- 53 message 56 [0 0 0 0] ------- [3:255 -1:255 32 0] 
s 39.464392737 _3_ MAC  --- 53 message 114 [0 ffffffff 3 800] ------- [3:255 -1:255 32 0] 
r 39.465305483 _2_ MAC  --- 53 message 56 [0 ffffffff 3 800] ------- [3:255 -1:255 32 0] 
r 39.465305522 _1_ MAC  --- 53 message 56 [0 ffffffff 3 800] ------- [3:255 -1:255 32 0] 
r 39.465330483 _2_ RTR  --- 53 message 56 [0 ffffffff 3 800] ------- [3:255 -1:255 32 0] 
r 39.465330522 _1_ RTR  --- 53 message 56 [0 ffffffff 3 800] ------- [3:255 -1:255 32 0] 