n -t * -s 0  -x 260 -y 415 -Z 0 -z 20  -v circle -c black
n -t * -s 1  -x 429 -y 518 -Z 0 -z 20  -v circle -c black
n -t * -s 2  -x 582 -y 411 -Z 0 -z 20  -v circle -c black
n -t * -s 3  -x 678 -y 517 -Z 0 -z 20  -v circle -c black
n -t * -s 4  -x 791 -y 413 -Z 0 -z 20  -v circle -c black
n -t * -s 5  -x 698 -y 230 -Z 0 -z 20  -v circle -c black
n -t * -s 6  -x 516 -y 222 -Z 0 -z 20  -v circle -c black
n -t * -s 7  -x 416 -y 341 -Z 0 -z 20  -v circle -c black
n -t * -s 8  -x 315 -y 230 -Z 0 -z 20  -v circle -c black
n -t * -s 9  -x 514 -y 80 -Z 0 -z 20  -v circle -c black
V -t * -v 1.0a5 -a 0
W -t * -x 900 -y 800
A -t * -n 1 -p 0 -o 0x7fffffff -c 30 -a 1
A -t * -h 1 -m 1073741823 -s 0
+ -t 0.036772557 -s 1 -d -1 -p message -e 32 -c 2 -a 0 -i 0 -k RTR 
- -t 0.036772557 -s 1 -d -1 -p message -e 32 -c 2 -a 0 -i 0 -k RTR
h -t 0.036772557 -s 1 -d -1 -p message -e 32 -c 2 -a 0 -i 0 -k RTR
r -t 0.038133148 -s 7 -d -1 -p message -e 32 -c 2 -a 0 -i 0 -k RTR
r -t 0.038133179 -s 2 -d -1 -p message -e 32 -c 2 -a 0 -i 0 -k RTR
r -t 0.038133216 -s 0 -d -1 -p message -e 32 -c 2 -a 0 -i 0 -k RTR
r -t 0.038133387 -s 3 -d -1 -p message -e 32 -c 2 -a 0 -i 0 -k RTR
+ -t 0.177383425 -s 2 -d -1 -p message -e 32 -c 2 -a 0 -i 1 -k RTR 
- -t 0.177383425 -s 2 -d -1 -p message -e 32 -c 2 -a 0 -i 1 -k RTR
h -t 0.177383425 -s 2 -d -1 -p message -e 32 -c 2 -a 0 -i 1 -k RTR
r -t 0.178363902 -s 3 -d -1 -p message -e 32 -c 2 -a 0 -i 1 -k RTR
r -t 0.178364026 -s 7 -d -1 -p message -e 32 -c 2 -a 0 -i 1 -k RTR
r -t 0.178364047 -s 1 -d -1 -p message -e 32 -c 2 -a 0 -i 1 -k RTR
r -t 0.178364092 -s 6 -d -1 -p message -e 32 -c 2 -a 0 -i 1 -k RTR
r -t 0.178364122 -s 4 -d -1 -p message -e 32 -c 2 -a 0 -i 1 -k RTR
r -t 0.178364142 -s 5 -d -1 -p message -e 32 -c 2 -a 0 -i 1 -k RTR
+ -t 0.470144892 -s 7 -d -1 -p message -e 32 -c 2 -a 0 -i 2 -k RTR 
- -t 0.470144892 -s 7 -d -1 -p message -e 32 -c 2 -a 0 -i 2 -k RTR
h -t 0.470144892 -s 7 -d -1 -p message -e 32 -c 2 -a 0 -i 2 -k RTR
r -t 0.471165392 -s 8 -d -1 -p message -e 32 -c 2 -a 0 -i 2 -k RTR
r -t 0.471165410 -s 6 -d -1 -p message -e 32 -c 2 -a 0 -i 2 -k RTR
r -t 0.471165468 -s 0 -d -1 -p message -e 32 -c 2 -a 0 -i 2 -k RTR
r -t 0.471165484 -s 1 -d -1 -p message -e 32 -c 2 -a 0 -i 2 -k RTR
r -t 0.471165493 -s 2 -d -1 -p message -e 32 -c 2 -a 0 -i 2 -k RTR
+ -t 0.622244972 -s 9 -d -1 -p message -e 32 -c 2 -a 0 -i 3 -k RTR 
- -t 0.622244972 -s 9 -d -1 -p message -e 32 -c 2 -a 0 -i 3 -k RTR
h -t 0.622244972 -s 9 -d -1 -p message -e 32 -c 2 -a 0 -i 3 -k RTR
r -t 0.623505446 -s 6 -d -1 -p message -e 32 -c 2 -a 0 -i 3 -k RTR
r -t 0.623505764 -s 5 -d -1 -p message -e 32 -c 2 -a 0 -i 3 -k RTR
r -t 0.623505803 -s 8 -d -1 -p message -e 32 -c 2 -a 0 -i 3 -k RTR
+ -t 0.634544216 -s 5 -d -1 -p message -e 32 -c 2 -a 0 -i 4 -k RTR 
- -t 0.634544216 -s 5 -d -1 -p message -e 32 -c 2 -a 0 -i 4 -k RTR
h -t 0.634544216 -s 5 -d -1 -p message -e 32 -c 2 -a 0 -i 4 -k RTR
r -t 0.635904823 -s 6 -d -1 -p message -e 32 -c 2 -a 0 -i 4 -k RTR
r -t 0.635904900 -s 4 -d -1 -p message -e 32 -c 2 -a 0 -i 4 -k RTR
r -t 0.635904933 -s 2 -d -1 -p message -e 32 -c 2 -a 0 -i 4 -k RTR
r -t 0.635905007 -s 9 -d -1 -p message -e 32 -c 2 -a 0 -i 4 -k RTR
+ -t 0.890857830 -s 3 -d -1 -p message -e 32 -c 2 -a 0 -i 5 -k RTR 
- -t 0.890857830 -s 3 -d -1 -p message -e 32 -c 2 -a 0 -i 5 -k RTR
h -t 0.890857830 -s 3 -d -1 -p message -e 32 -c 2 -a 0 -i 5 -k RTR
r -t 0.892038306 -s 2 -d -1 -p message -e 32 -c 2 -a 0 -i 5 -k RTR
r -t 0.892038342 -s 4 -d -1 -p message -e 32 -c 2 -a 0 -i 5 -k RTR
r -t 0.892038660 -s 1 -d -1 -p message -e 32 -c 2 -a 0 -i 5 -k RTR
+ -t 1.115816623 -s 0 -d -1 -p message -e 32 -c 2 -a 0 -i 6 -k RTR 
- -t 1.115816623 -s 0 -d -1 -p message -e 32 -c 2 -a 0 -i 6 -k RTR
h -t 1.115816623 -s 0 -d -1 -p message -e 32 -c 2 -a 0 -i 6 -k RTR
r -t 1.116837198 -s 7 -d -1 -p message -e 32 -c 2 -a 0 -i 6 -k RTR
r -t 1.116837266 -s 8 -d -1 -p message -e 32 -c 2 -a 0 -i 6 -k RTR
r -t 1.116837282 -s 1 -d -1 -p message -e 32 -c 2 -a 0 -i 6 -k RTR
+ -t 1.286604722 -s 8 -d -1 -p message -e 32 -c 2 -a 0 -i 7 -k RTR 
- -t 1.286604722 -s 8 -d -1 -p message -e 32 -c 2 -a 0 -i 7 -k RTR
h -t 1.286604722 -s 8 -d -1 -p message -e 32 -c 2 -a 0 -i 7 -k RTR
r -t 1.287625222 -s 7 -d -1 -p message -e 32 -c 2 -a 0 -i 7 -k RTR
r -t 1.287625365 -s 0 -d -1 -p message -e 32 -c 2 -a 0 -i 7 -k RTR
r -t 1.287625393 -s 6 -d -1 -p message -e 32 -c 2 -a 0 -i 7 -k RTR
r -t 1.287625553 -s 9 -d -1 -p message -e 32 -c 2 -a 0 -i 7 -k RTR
+ -t 1.598894933 -s 4 -d -1 -p message -e 32 -c 2 -a 0 -i 8 -k RTR 
- -t 1.598894933 -s 4 -d -1 -p message -e 32 -c 2 -a 0 -i 8 -k RTR
h -t 1.598894933 -s 4 -d -1 -p message -e 32 -c 2 -a 0 -i 8 -k RTR
r -t 1.600055445 -s 3 -d -1 -p message -e 32 -c 2 -a 0 -i 8 -k RTR
r -t 1.600055618 -s 5 -d -1 -p message -e 32 -c 2 -a 0 -i 8 -k RTR
r -t 1.600055630 -s 2 -d -1 -p message -e 32 -c 2 -a 0 -i 8 -k RTR
+ -t 1.634183138 -s 6 -d -1 -p message -e 32 -c 2 -a 0 -i 9 -k RTR 
- -t 1.634183138 -s 6 -d -1 -p message -e 32 -c 2 -a 0 -i 9 -k RTR
h -t 1.634183138 -s 6 -d -1 -p message -e 32 -c 2 -a 0 -i 9 -k RTR
r -t 1.635283611 -s 9 -d -1 -p message -e 32 -c 2 -a 0 -i 9 -k RTR
r -t 1.635283656 -s 7 -d -1 -p message -e 32 -c 2 -a 0 -i 9 -k RTR
r -t 1.635283745 -s 5 -d -1 -p message -e 32 -c 2 -a 0 -i 9 -k RTR
r -t 1.635283805 -s 2 -d -1 -p message -e 32 -c 2 -a 0 -i 9 -k RTR
r -t 1.635283808 -s 8 -d -1 -p message -e 32 -c 2 -a 0 -i 9 -k RTR
n -t 10.000000 -s 0 -x 260.000000 -y 415.000000 -U -0.181485 -V -2.994505 -T 55.100918
+ -t 10.000000000 -s 0 -d -1 -p tcp -e 40 -c 2 -a 0 -i 10 -k AGT 
- -t 10.000000000 -s 0 -d -1 -p tcp -e 40 -c 2 -a 0 -i 10 -k AGT
h -t 10.000000000 -s 0 -d -1 -p tcp -e 40 -c 2 -a 0 -i 10 -k AGT
+ -t 10.000000000 -s 0 -d 7 -p tcp -e 60 -c 2 -a 0 -i 10 -k RTR 
- -t 10.000000000 -s 0 -d 7 -p tcp -e 60 -c 2 -a 0 -i 10 -k RTR
h -t 10.000000000 -s 0 -d 7 -p tcp -e 60 -c 2 -a 0 -i 10 -k RTR
r -t 10.004655029 -s 7 -d 7 -p tcp -e 60 -c 2 -a 0 -i 10 -k AGT
+ -t 10.004655029 -s 7 -d -1 -p ack -e 40 -c 2 -a 0 -i 11 -k AGT 
- -t 10.004655029 -s 7 -d -1 -p ack -e 40 -c 2 -a 0 -i 11 -k AGT
h -t 10.004655029 -s 7 -d -1 -p ack -e 40 -c 2 -a 0 -i 11 -k AGT
+ -t 10.004655029 -s 7 -d 0 -p ack -e 60 -c 2 -a 0 -i 11 -k RTR 
- -t 10.004655029 -s 7 -d 0 -p ack -e 60 -c 2 -a 0 -i 11 -k RTR
h -t 10.004655029 -s 7 -d 0 -p ack -e 60 -c 2 -a 0 -i 11 -k RTR
r -t 10.006720755 -s 0 -d 0 -p ack -e 60 -c 2 -a 0 -i 11 -k AGT
+ -t 10.006720755 -s 0 -d -1 -p tcp -e 1040 -c 2 -a 0 -i 12 -k AGT 
- -t 10.006720755 -s 0 -d -1 -p tcp -e 1040 -c 2 -a 0 -i 12 -k AGT
h -t 10.006720755 -s 0 -d -1 -p tcp -e 1040 -c 2 -a 0 -i 12 -k AGT
+ -t 10.006720755 -s 0 -d 7 -p tcp -e 1060 -c 2 -a 0 -i 12 -k RTR 
- -t 10.006720755 -s 0 -d 7 -p tcp -e 1060 -c 2 -a 0 -i 12 -k RTR
h -t 10.006720755 -s 0 -d 7 -p tcp -e 1060 -c 2 -a 0 -i 12 -k RTR
+ -t 10.006720755 -s 0 -d -1 -p tcp -e 1040 -c 2 -a 0 -i 13 -k AGT 
- -t 10.006720755 -s 0 -d -1 -p tcp -e 1040 -c 2 -a 0 -i 13 -k AGT
h -t 10.006720755 -s 0 -d -1 -p tcp -e 1040 -c 2 -a 0 -i 13 -k AGT
+ -t 10.006720755 -s 0 -d 7 -p tcp -e 1060 -c 2 -a 0 -i 13 -k RTR 
- -t 10.006720755 -s 0 -d 7 -p tcp -e 1060 -c 2 -a 0 -i 13 -k RTR
h -t 10.006720755 -s 0 -d 7 -p tcp -e 1060 -c 2 -a 0 -i 13 -k RTR
r -t 10.016726482 -s 7 -d 7 -p tcp -e 1060 -c 2 -a 0 -i 12 -k AGT
+ -t 10.016726482 -s 7 -d -1 -p ack -e 40 -c 2 -a 0 -i 14 -k AGT 
- -t 10.016726482 -s 7 -d -1 -p ack -e 40 -c 2 -a 0 -i 14 -k AGT
h -t 10.016726482 -s 7 -d -1 -p ack -e 40 -c 2 -a 0 -i 14 -k AGT
+ -t 10.016726482 -s 7 -d 0 -p ack -e 60 -c 2 -a 0 -i 14 -k RTR 
- -t 10.016726482 -s 7 -d 0 -p ack -e 60 -c 2 -a 0 -i 14 -k RTR
h -t 10.016726482 -s 7 -d 0 -p ack -e 60 -c 2 -a 0 -i 14 -k RTR
r -t 10.026712784 -s 7 -d 7 -p tcp -e 1060 -c 2 -a 0 -i 13 -k AGT
+ -t 10.026712784 -s 7 -d -1 -p ack -e 40 -c 2 -a 0 -i 15 -k AGT 
- -t 10.026712784 -s 7 -d -1 -p ack -e 40 -c 2 -a 0 -i 15 -k AGT
h -t 10.026712784 -s 7 -d -1 -p ack -e 40 -c 2 -a 0 -i 15 -k AGT
+ -t 10.026712784 -s 7 -d 0 -p ack -e 60 -c 2 -a 0 -i 15 -k RTR 
- -t 10.026712784 -s 7 -d 0 -p ack -e 60 -c 2 -a 0 -i 15 -k RTR
h -t 10.026712784 -s 7 -d 0 -p ack -e 60 -c 2 -a 0 -i 15 -k RTR
r -t 10.028998510 -s 0 -d 0 -p ack -e 60 -c 2 -a 0 -i 14 -k AGT
+ -t 10.028998510 -s 0 -d -1 -p tcp -e 1040 -c 2 -a 0 -i 16 -k AGT 
- -t 10.028998510 -s 0 -d -1 -p tcp -e 1040 -c 2 -a 0 -i 16 -k AGT
h -t 10.028998510 -s 0 -d -1 -p tcp -e 1040 -c 2 -a 0 -i 16 -k AGT
+ -t 10.028998510 -s 0 -d 7 -p tcp -e 1060 -c 2 -a 0 -i 16 -k RTR 
- -t 10.028998510 -s 0 -d 7 -p tcp -e 1060 -c 2 -a 0 -i 16 -k RTR
h -t 10.028998510 -s 0 -d 7 -p tcp -e 1060 -c 2 -a 0 -i 16 -k RTR
+ -t 10.028998510 -s 0 -d -1 -p tcp -e 1040 -c 2 -a 0 -i 17 -k AGT 
- -t 10.028998510 -s 0 -d -1 -p tcp -e 1040 -c 2 -a 0 -i 17 -k AGT
h -t 10.028998510 -s 0 -d -1 -p tcp -e 1040 -c 2 -a 0 -i 17 -k AGT
+ -t 10.028998510 -s 0 -d 7 -p tcp -e 1060 -c 2 -a 0 -i 17 -k RTR 
- -t 10.028998510 -s 0 -d 7 -p tcp -e 1060 -c 2 -a 0 -i 17 -k RTR
h -t 10.028998510 -s 0 -d 7 -p tcp -e 1060 -c 2 -a 0 -i 17 -k RTR
r -t 10.031264812 -s 0 -d 0 -p ack -e 60 -c 2 -a 0 -i 15 -k AGT
+ -t 10.031264812 -s 0 -d -1 -p tcp -e 1040 -c 2 -a 0 -i 18 -k AGT 
- -t 10.031264812 -s 0 -d -1 -p tcp -e 1040 -c 2 -a 0 -i 18 -k AGT
h -t 10.031264812 -s 0 -d -1 -p tcp -e 1040 -c 2 -a 0 -i 18 -k AGT
+ -t 10.031264812 -s 0 -d 7 -p tcp -e 1060 -c 2 -a 0 -i 18 -k RTR 
- -t 10.031264812 -s 0 -d 7 -p tcp -e 1060 -c 2 -a 0 -i 18 -k RTR
h -t 10.031264812 -s 0 -d 7 -p tcp -e 1060 -c 2 -a 0 -i 18 -k RTR
+ -t 10.031264812 -s 0 -d -1 -p tcp -e 1040 -c 2 -a 0 -i 19 -k AGT 
- -t 10.031264812 -s 0 -d -1 -p tcp -e 1040 -c 2 -a 0 -i 19 -k AGT
h -t 10.031264812 -s 0 -d -1 -p tcp -e 1040 -c 2 -a 0 -i 19 -k AGT
+ -t 10.031264812 -s 0 -d 7 -p tcp -e 1060 -c 2 -a 0 -i 19 -k RTR 
- -t 10.031264812 -s 0 -d 7 -p tcp -e 1060 -c 2 -a 0 -i 19 -k RTR
h -t 10.031264812 -s 0 -d 7 -p tcp -e 1060 -c 2 -a 0 -i 19 -k RTR
r -t 10.041270538 -s 7 -d 7 -p tcp -e 1060 -c 2 -a 0 -i 16 -k AGT
+ -t 10.041270538 -s 7 -d -1 -p ack -e 40 -c 2 -a 0 -i 20 -k AGT 
- -t 10.041270538 -s 7 -d -1 -p ack -e 40 -c 2 -a 0 -i 20 -k AGT
h -t 10.041270538 -s 7 -d -1 -p ack -e 40 -c 2 -a 0 -i 20 -k AGT
+ -t 10.041270538 -s 7 -d 0 -p ack -e 60 -c 2 -a 0 -i 20 -k RTR 
- -t 10.041270538 -s 7 -d 0 -p ack -e 60 -c 2 -a 0 -i 20 -k RTR
h -t 10.041270538 -s 7 -d 0 -p ack -e 60 -c 2 -a 0 -i 20 -k RTR
r -t 10.043276264 -s 0 -d 0 -p ack -e 60 -c 2 -a 0 -i 20 -k AGT
+ -t 10.043276264 -s 0 -d -1 -p tcp -e 1040 -c 2 -a 0 -i 21 -k AGT 
- -t 10.043276264 -s 0 -d -1 -p tcp -e 1040 -c 2 -a 0 -i 21 -k AGT
h -t 10.043276264 -s 0 -d -1 -p tcp -e 1040 -c 2 -a 0 -i 21 -k AGT
+ -t 10.043276264 -s 0 -d 7 -p tcp -e 1060 -c 2 -a 0 -i 21 -k RTR 
- -t 10.043276264 -s 0 -d 7 -p tcp -e 1060 -c 2 -a 0 -i 21 -k RTR
h -t 10.043276264 -s 0 -d 7 -p tcp -e 1060 -c 2 -a 0 -i 21 -k RTR
+ -t 10.043276264 -s 0 -d -1 -p tcp -e 1040 -c 2 -a 0 -i 22 -k AGT 
- -t 10.043276264 -s 0 -d -1 -p tcp -e 1040 -c 2 -a 0 -i 22 -k AGT
h -t 10.043276264 -s 0 -d -1 -p tcp -e 1040 -c 2 -a 0 -i 22 -k AGT
+ -t 10.043276264 -s 0 -d 7 -p tcp -e 1060 -c 2 -a 0 -i 22 -k RTR 
- -t 10.043276264 -s 0 -d 7 -p tcp -e 1060 -c 2 -a 0 -i 22 -k RTR
h -t 10.043276264 -s 0 -d 7 -p tcp -e 1060 -c 2 -a 0 -i 22 -k RTR
r -t 10.053741990 -s 7 -d 7 -p tcp -e 1060 -c 2 -a 0 -i 17 -k AGT
+ -t 10.053741990 -s 7 -d -1 -p ack -e 40 -c 2 -a 0 -i 23 -k AGT 
- -t 10.053741990 -s 7 -d -1 -p ack -e 40 -c 2 -a 0 -i 23 -k AGT
h -t 10.053741990 -s 7 -d -1 -p ack -e 40 -c 2 -a 0 -i 23 -k AGT
+ -t 10.053741990 -s 7 -d 0 -p ack -e 60 -c 2 -a 0 -i 23 -k RTR 
- -t 10.053741990 -s 7 -d 0 -p ack -e 60 -c 2 -a 0 -i 23 -k RTR
h -t 10.053741990 -s 7 -d 0 -p ack -e 60 -c 2 -a 0 -i 23 -k RTR
r -t 10.055847716 -s 0 -d 0 -p ack -e 60 -c 2 -a 0 -i 23 -k AGT
+ -t 10.055847716 -s 0 -d -1 -p tcp -e 1040 -c 2 -a 0 -i 24 -k AGT 
- -t 10.055847716 -s 0 -d -1 -p tcp -e 1040 -c 2 -a 0 -i 24 -k AGT
h -t 10.055847716 -s 0 -d -1 -p tcp -e 1040 -c 2 -a 0 -i 24 -k AGT
+ -t 10.055847716 -s 0 -d 7 -p tcp -e 1060 -c 2 -a 0 -i 24 -k RTR 
- -t 10.055847716 -s 0 -d 7 -p tcp -e 1060 -c 2 -a 0 -i 24 -k RTR
h -t 10.055847716 -s 0 -d 7 -p tcp -e 1060 -c 2 -a 0 -i 24 -k RTR
+ -t 10.055847716 -s 0 -d -1 -p tcp -e 1040 -c 2 -a 0 -i 25 -k AGT 
- -t 10.055847716 -s 0 -d -1 -p tcp -e 1040 -c 2 -a 0 -i 25 -k AGT
h -t 10.055847716 -s 0 -d -1 -p tcp -e 1040 -c 2 -a 0 -i 25 -k AGT
+ -t 10.055847716 -s 0 -d 7 -p tcp -e 1060 -c 2 -a 0 -i 25 -k RTR 
- -t 10.055847716 -s 0 -d 7 -p tcp -e 1060 -c 2 -a 0 -i 25 -k RTR
h -t 10.055847716 -s 0 -d 7 -p tcp -e 1060 -c 2 -a 0 -i 25 -k RTR
r -t 10.066033442 -s 7 -d 7 -p tcp -e 1060 -c 2 -a 0 -i 18 -k AGT
+ -t 10.066033442 -s 7 -d -1 -p ack -e 40 -c 2 -a 0 -i 26 -k AGT 
- -t 10.066033442 -s 7 -d -1 -p ack -e 40 -c 2 -a 0 -i 26 -k AGT
h -t 10.066033442 -s 7 -d -1 -p ack -e 40 -c 2 -a 0 -i 26 -k AGT
+ -t 10.066033442 -s 7 -d 0 -p ack -e 60 -c 2 -a 0 -i 26 -k RTR 
- -t 10.066033442 -s 7 -d 0 -p ack -e 60 -c 2 -a 0 -i 26 -k RTR
h -t 10.066033442 -s 7 -d 0 -p ack -e 60 -c 2 -a 0 -i 26 -k RTR
r -t 10.076139743 -s 7 -d 7 -p tcp -e 1060 -c 2 -a 0 -i 19 -k AGT
+ -t 10.076139743 -s 7 -d -1 -p ack -e 40 -c 2 -a 0 -i 27 -k AGT 
- -t 10.076139743 -s 7 -d -1 -p ack -e 40 -c 2 -a 0 -i 27 -k AGT
h -t 10.076139743 -s 7 -d -1 -p ack -e 40 -c 2 -a 0 -i 27 -k AGT
+ -t 10.076139743 -s 7 -d 0 -p ack -e 60 -c 2 -a 0 -i 27 -k RTR 
- -t 10.076139743 -s 7 -d 0 -p ack -e 60 -c 2 -a 0 -i 27 -k RTR
h -t 10.076139743 -s 7 -d 0 -p ack -e 60 -c 2 -a 0 -i 27 -k RTR
r -t 10.086326044 -s 7 -d 7 -p tcp -e 1060 -c 2 -a 0 -i 21 -k AGT
+ -t 10.086326044 -s 7 -d -1 -p ack -e 40 -c 2 -a 0 -i 28 -k AGT 
- -t 10.086326044 -s 7 -d -1 -p ack -e 40 -c 2 -a 0 -i 28 -k AGT
h -t 10.086326044 -s 7 -d -1 -p ack -e 40 -c 2 -a 0 -i 28 -k AGT
+ -t 10.086326044 -s 7 -d 0 -p ack -e 60 -c 2 -a 0 -i 28 -k RTR 
- -t 10.086326044 -s 7 -d 0 -p ack -e 60 -c 2 -a 0 -i 28 -k RTR
h -t 10.086326044 -s 7 -d 0 -p ack -e 60 -c 2 -a 0 -i 28 -k RTR
r -t 10.096412345 -s 7 -d 7 -p tcp -e 1060 -c 2 -a 0 -i 22 -k AGT
+ -t 10.096412345 -s 7 -d -1 -p ack -e 40 -c 2 -a 0 -i 29 -k AGT 
- -t 10.096412345 -s 7 -d -1 -p ack -e 40 -c 2 -a 0 -i 29 -k AGT
h -t 10.096412345 -s 7 -d -1 -p ack -e 40 -c 2 -a 0 -i 29 -k AGT
+ -t 10.096412345 -s 7 -d 0 -p ack -e 60 -c 2 -a 0 -i 29 -k RTR 
- -t 10.096412345 -s 7 -d 0 -p ack -e 60 -c 2 -a 0 -i 29 -k RTR
h -t 10.096412345 -s 7 -d 0 -p ack -e 60 -c 2 -a 0 -i 29 -k RTR
r -t 10.098438071 -s 0 -d 0 -p ack -e 60 -c 2 -a 0 -i 26 -k AGT
+ -t 10.098438071 -s 0 -d -1 -p tcp -e 1040 -c 2 -a 0 -i 30 -k AGT 
- -t 10.098438071 -s 0 -d -1 -p tcp -e 1040 -c 2 -a 0 -i 30 -k AGT
h -t 10.098438071 -s 0 -d -1 -p tcp -e 1040 -c 2 -a 0 -i 30 -k AGT
+ -t 10.098438071 -s 0 -d 7 -p tcp -e 1060 -c 2 -a 0 -i 30 -k RTR 
- -t 10.098438071 -s 0 -d 7 -p tcp -e 1060 -c 2 -a 0 -i 30 -k RTR
h -t 10.098438071 -s 0 -d 7 -p tcp -e 1060 -c 2 -a 0 -i 30 -k RTR
+ -t 10.098438071 -s 0 -d -1 -p tcp -e 1040 -c 2 -a 0 -i 31 -k AGT 
- -t 10.098438071 -s 0 -d -1 -p tcp -e 1040 -c 2 -a 0 -i 31 -k AGT
h -t 10.098438071 -s 0 -d -1 -p tcp -e 1040 -c 2 -a 0 -i 31 -k AGT
+ -t 10.098438071 -s 0 -d 7 -p tcp -e 1060 -c 2 -a 0 -i 31 -k RTR 
- -t 10.098438071 -s 0 -d 7 -p tcp -e 1060 -c 2 -a 0 -i 31 -k RTR
h -t 10.098438071 -s 0 -d 7 -p tcp -e 1060 -c 2 -a 0 -i 31 -k RTR
r -t 10.108483796 -s 7 -d 7 -p tcp -e 1060 -c 2 -a 0 -i 24 -k AGT
+ -t 10.108483796 -s 7 -d -1 -p ack -e 40 -c 2 -a 0 -i 32 -k AGT 
- -t 10.108483796 -s 7 -d -1 -p ack -e 40 -c 2 -a 0 -i 32 -k AGT
h -t 10.108483796 -s 7 -d -1 -p ack -e 40 -c 2 -a 0 -i 32 -k AGT
+ -t 10.108483796 -s 7 -d 0 -p ack -e 60 -c 2 -a 0 -i 32 -k RTR 
- -t 10.108483796 -s 7 -d 0 -p ack -e 60 -c 2 -a 0 -i 32 -k RTR
h -t 10.108483796 -s 7 -d 0 -p ack -e 60 -c 2 -a 0 -i 32 -k RTR
r -t 10.118670097 -s 7 -d 7 -p tcp -e 1060 -c 2 -a 0 -i 25 -k AGT
+ -t 10.118670097 -s 7 -d -1 -p ack -e 40 -c 2 -a 0 -i 33 -k AGT 
- -t 10.118670097 -s 7 -d -1 -p ack -e 40 -c 2 -a 0 -i 33 -k AGT
h -t 10.118670097 -s 7 -d -1 -p ack -e 40 -c 2 -a 0 -i 33 -k AGT
+ -t 10.118670097 -s 7 -d 0 -p ack -e 60 -c 2 -a 0 -i 33 -k RTR 
- -t 10.118670097 -s 7 -d 0 -p ack -e 60 -c 2 -a 0 -i 33 -k RTR
h -t 10.118670097 -s 7 -d 0 -p ack -e 60 -c 2 -a 0 -i 33 -k RTR
r -t 10.120675822 -s 0 -d 0 -p ack -e 60 -c 2 -a 0 -i 27 -k AGT
+ -t 10.120675822 -s 0 -d -1 -p tcp -e 1040 -c 2 -a 0 -i 34 -k AGT 
- -t 10.120675822 -s 0 -d -1 -p tcp -e 1040 -c 2 -a 0 -i 34 -k AGT
h -t 10.120675822 -s 0 -d -1 -p tcp -e 1040 -c 2 -a 0 -i 34 -k AGT
+ -t 10.120675822 -s 0 -d 7 -p tcp -e 1060 -c 2 -a 0 -i 34 -k RTR 
- -t 10.120675822 -s 0 -d 7 -p tcp -e 1060 -c 2 -a 0 -i 34 -k RTR
h -t 10.120675822 -s 0 -d 7 -p tcp -e 1060 -c 2 -a 0 -i 34 -k RTR
+ -t 10.120675822 -s 0 -d -1 -p tcp -e 1040 -c 2 -a 0 -i 35 -k AGT 
- -t 10.120675822 -s 0 -d -1 -p tcp -e 1040 -c 2 -a 0 -i 35 -k AGT
h -t 10.120675822 -s 0 -d -1 -p tcp -e 1040 -c 2 -a 0 -i 35 -k AGT
+ -t 10.120675822 -s 0 -d 7 -p tcp -e 1060 -c 2 -a 0 -i 35 -k RTR 
- -t 10.120675822 -s 0 -d 7 -p tcp -e 1060 -c 2 -a 0 -i 35 -k RTR
h -t 10.120675822 -s 0 -d 7 -p tcp -e 1060 -c 2 -a 0 -i 35 -k RTR
r -t 10.130721547 -s 7 -d 7 -p tcp -e 1060 -c 2 -a 0 -i 30 -k AGT
+ -t 10.130721547 -s 7 -d -1 -p ack -e 40 -c 2 -a 0 -i 36 -k AGT 
- -t 10.130721547 -s 7 -d -1 -p ack -e 40 -c 2 -a 0 -i 36 -k AGT
h -t 10.130721547 -s 7 -d -1 -p ack -e 40 -c 2 -a 0 -i 36 -k AGT
+ -t 10.130721547 -s 7 -d 0 -p ack -e 60 -c 2 -a 0 -i 36 -k RTR 
- -t 10.130721547 -s 7 -d 0 -p ack -e 60 -c 2 -a 0 -i 36 -k RTR
h -t 10.130721547 -s 7 -d 0 -p ack -e 60 -c 2 -a 0 -i 36 -k RTR
r -t 10.133007272 -s 0 -d 0 -p ack -e 60 -c 2 -a 0 -i 28 -k AGT
+ -t 10.133007272 -s 0 -d -1 -p tcp -e 1040 -c 2 -a 0 -i 37 -k AGT 
- -t 10.133007272 -s 0 -d -1 -p tcp -e 1040 -c 2 -a 0 -i 37 -k AGT
h -t 10.133007272 -s 0 -d -1 -p tcp -e 1040 -c 2 -a 0 -i 37 -k AGT
+ -t 10.133007272 -s 0 -d 7 -p tcp -e 1060 -c 2 -a 0 -i 37 -k RTR 
- -t 10.133007272 -s 0 -d 7 -p tcp -e 1060 -c 2 -a 0 -i 37 -k RTR
h -t 10.133007272 -s 0 -d 7 -p tcp -e 1060 -c 2 -a 0 -i 37 -k RTR
+ -t 10.133007272 -s 0 -d -1 -p tcp -e 1040 -c 2 -a 0 -i 38 -k AGT 
- -t 10.133007272 -s 0 -d -1 -p tcp -e 1040 -c 2 -a 0 -i 38 -k AGT
h -t 10.133007272 -s 0 -d -1 -p tcp -e 1040 -c 2 -a 0 -i 38 -k AGT
+ -t 10.133007272 -s 0 -d 7 -p tcp -e 1060 -c 2 -a 0 -i 38 -k RTR 
- -t 10.133007272 -s 0 -d 7 -p tcp -e 1060 -c 2 -a 0 -i 38 -k RTR
h -t 10.133007272 -s 0 -d 7 -p tcp -e 1060 -c 2 -a 0 -i 38 -k RTR
r -t 10.135113573 -s 0 -d 0 -p ack -e 60 -c 2 -a 0 -i 29 -k AGT
+ -t 10.135113573 -s 0 -d -1 -p tcp -e 1040 -c 2 -a 0 -i 39 -k AGT 
- -t 10.135113573 -s 0 -d -1 -p tcp -e 1040 -c 2 -a 0 -i 39 -k AGT
h -t 10.135113573 -s 0 -d -1 -p tcp -e 1040 -c 2 -a 0 -i 39 -k AGT
+ -t 10.135113573 -s 0 -d 7 -p tcp -e 1060 -c 2 -a 0 -i 39 -k RTR 
- -t 10.135113573 -s 0 -d 7 -p tcp -e 1060 -c 2 -a 0 -i 39 -k RTR
h -t 10.135113573 -s 0 -d 7 -p tcp -e 1060 -c 2 -a 0 -i 39 -k RTR
+ -t 10.135113573 -s 0 -d -1 -p tcp -e 1040 -c 2 -a 0 -i 40 -k AGT 
- -t 10.135113573 -s 0 -d -1 -p tcp -e 1040 -c 2 -a 0 -i 40 -k AGT
h -t 10.135113573 -s 0 -d -1 -p tcp -e 1040 -c 2 -a 0 -i 40 -k AGT
+ -t 10.135113573 -s 0 -d 7 -p tcp -e 1060 -c 2 -a 0 -i 40 -k RTR 
- -t 10.135113573 -s 0 -d 7 -p tcp -e 1060 -c 2 -a 0 -i 40 -k RTR
h -t 10.135113573 -s 0 -d 7 -p tcp -e 1060 -c 2 -a 0 -i 40 -k RTR
r -t 10.137159873 -s 0 -d 0 -p ack -e 60 -c 2 -a 0 -i 32 -k AGT
+ -t 10.137159873 -s 0 -d -1 -p tcp -e 1040 -c 2 -a 0 -i 41 -k AGT 
- -t 10.137159873 -s 0 -d -1 -p tcp -e 1040 -c 2 -a 0 -i 41 -k AGT
h -t 10.137159873 -s 0 -d -1 -p tcp -e 1040 -c 2 -a 0 -i 41 -k AGT
+ -t 10.137159873 -s 0 -d 7 -p tcp -e 1060 -c 2 -a 0 -i 41 -k RTR 
- -t 10.137159873 -s 0 -d 7 -p tcp -e 1060 -c 2 -a 0 -i 41 -k RTR
h -t 10.137159873 -s 0 -d 7 -p tcp -e 1060 -c 2 -a 0 -i 41 -k RTR
+ -t 10.137159873 -s 0 -d -1 -p tcp -e 1040 -c 2 -a 0 -i 42 -k AGT 
- -t 10.137159873 -s 0 -d -1 -p tcp -e 1040 -c 2 -a 0 -i 42 -k AGT
h -t 10.137159873 -s 0 -d -1 -p tcp -e 1040 -c 2 -a 0 -i 42 -k AGT
+ -t 10.137159873 -s 0 -d 7 -p tcp -e 1060 -c 2 -a 0 -i 42 -k RTR 
- -t 10.137159873 -s 0 -d 7 -p tcp -e 1060 -c 2 -a 0 -i 42 -k RTR
h -t 10.137159873 -s 0 -d 7 -p tcp -e 1060 -c 2 -a 0 -i 42 -k RTR
r -t 10.147285598 -s 7 -d 7 -p tcp -e 1060 -c 2 -a 0 -i 31 -k AGT
+ -t 10.147285598 -s 7 -d -1 -p ack -e 40 -c 2 -a 0 -i 43 -k AGT 
- -t 10.147285598 -s 7 -d -1 -p ack -e 40 -c 2 -a 0 -i 43 -k AGT
h -t 10.147285598 -s 7 -d -1 -p ack -e 40 -c 2 -a 0 -i 43 -k AGT
+ -t 10.147285598 -s 7 -d 0 -p ack -e 60 -c 2 -a 0 -i 43 -k RTR 
- -t 10.147285598 -s 7 -d 0 -p ack -e 60 -c 2 -a 0 -i 43 -k RTR
h -t 10.147285598 -s 7 -d 0 -p ack -e 60 -c 2 -a 0 -i 43 -k RTR
r -t 10.157391898 -s 7 -d 7 -p tcp -e 1060 -c 2 -a 0 -i 34 -k AGT
+ -t 10.157391898 -s 7 -d -1 -p ack -e 40 -c 2 -a 0 -i 44 -k AGT 
- -t 10.157391898 -s 7 -d -1 -p ack -e 40 -c 2 -a 0 -i 44 -k AGT
h -t 10.157391898 -s 7 -d -1 -p ack -e 40 -c 2 -a 0 -i 44 -k AGT
+ -t 10.157391898 -s 7 -d 0 -p ack -e 60 -c 2 -a 0 -i 44 -k RTR 
- -t 10.157391898 -s 7 -d 0 -p ack -e 60 -c 2 -a 0 -i 44 -k RTR
h -t 10.157391898 -s 7 -d 0 -p ack -e 60 -c 2 -a 0 -i 44 -k RTR
r -t 10.159717623 -s 0 -d 0 -p ack -e 60 -c 2 -a 0 -i 33 -k AGT
+ -t 10.159717623 -s 0 -d -1 -p tcp -e 1040 -c 2 -a 0 -i 45 -k AGT 
- -t 10.159717623 -s 0 -d -1 -p tcp -e 1040 -c 2 -a 0 -i 45 -k AGT
h -t 10.159717623 -s 0 -d -1 -p tcp -e 1040 -c 2 -a 0 -i 45 -k AGT
+ -t 10.159717623 -s 0 -d 7 -p tcp -e 1060 -c 2 -a 0 -i 45 -k RTR 
- -t 10.159717623 -s 0 -d 7 -p tcp -e 1060 -c 2 -a 0 -i 45 -k RTR
h -t 10.159717623 -s 0 -d 7 -p tcp -e 1060 -c 2 -a 0 -i 45 -k RTR
+ -t 10.159717623 -s 0 -d -1 -p tcp -e 1040 -c 2 -a 0 -i 46 -k AGT 
- -t 10.159717623 -s 0 -d -1 -p tcp -e 1040 -c 2 -a 0 -i 46 -k AGT
h -t 10.159717623 -s 0 -d -1 -p tcp -e 1040 -c 2 -a 0 -i 46 -k AGT
+ -t 10.159717623 -s 0 -d 7 -p tcp -e 1060 -c 2 -a 0 -i 46 -k RTR 
- -t 10.159717623 -s 0 -d 7 -p tcp -e 1060 -c 2 -a 0 -i 46 -k RTR
h -t 10.159717623 -s 0 -d 7 -p tcp -e 1060 -c 2 -a 0 -i 46 -k RTR
r -t 10.169983347 -s 7 -d 7 -p tcp -e 1060 -c 2 -a 0 -i 35 -k AGT
+ -t 10.169983347 -s 7 -d -1 -p ack -e 40 -c 2 -a 0 -i 47 -k AGT 
- -t 10.169983347 -s 7 -d -1 -p ack -e 40 -c 2 -a 0 -i 47 -k AGT
h -t 10.169983347 -s 7 -d -1 -p ack -e 40 -c 2 -a 0 -i 47 -k AGT
+ -t 10.169983347 -s 7 -d 0 -p ack -e 60 -c 2 -a 0 -i 47 -k RTR 
- -t 10.169983347 -s 7 -d 0 -p ack -e 60 -c 2 -a 0 -i 47 -k RTR
h -t 10.169983347 -s 7 -d 0 -p ack -e 60 -c 2 -a 0 -i 47 -k RTR
r -t 10.172149072 -s 0 -d 0 -p ack -e 60 -c 2 -a 0 -i 36 -k AGT
+ -t 10.172149072 -s 0 -d -1 -p tcp -e 1040 -c 2 -a 0 -i 48 -k AGT 
- -t 10.172149072 -s 0 -d -1 -p tcp -e 1040 -c 2 -a 0 -i 48 -k AGT
h -t 10.172149072 -s 0 -d -1 -p tcp -e 1040 -c 2 -a 0 -i 48 -k AGT
+ -t 10.172149072 -s 0 -d 7 -p tcp -e 1060 -c 2 -a 0 -i 48 -k RTR 
- -t 10.172149072 -s 0 -d 7 -p tcp -e 1060 -c 2 -a 0 -i 48 -k RTR
h -t 10.172149072 -s 0 -d 7 -p tcp -e 1060 -c 2 -a 0 -i 48 -k RTR
+ -t 10.172149072 -s 0 -d -1 -p tcp -e 1040 -c 2 -a 0 -i 49 -k AGT 
- -t 10.172149072 -s 0 -d -1 -p tcp -e 1040 -c 2 -a 0 -i 49 -k AGT
h -t 10.172149072 -s 0 -d -1 -p tcp -e 1040 -c 2 -a 0 -i 49 -k AGT
+ -t 10.172149072 -s 0 -d 7 -p tcp -e 1060 -c 2 -a 0 -i 49 -k RTR 
- -t 10.172149072 -s 0 -d 7 -p tcp -e 1060 -c 2 -a 0 -i 49 -k RTR
h -t 10.172149072 -s 0 -d 7 -p tcp -e 1060 -c 2 -a 0 -i 49 -k RTR
r -t 10.174435372 -s 0 -d 0 -p ack -e 60 -c 2 -a 0 -i 43 -k AGT
+ -t 10.174435372 -s 0 -d -1 -p tcp -e 1040 -c 2 -a 0 -i 50 -k AGT 
- -t 10.174435372 -s 0 -d -1 -p tcp -e 1040 -c 2 -a 0 -i 50 -k AGT
h -t 10.174435372 -s 0 -d -1 -p tcp -e 1040 -c 2 -a 0 -i 50 -k AGT
+ -t 10.174435372 -s 0 -d 7 -p tcp -e 1060 -c 2 -a 0 -i 50 -k RTR 
- -t 10.174435372 -s 0 -d 7 -p tcp -e 1060 -c 2 -a 0 -i 50 -k RTR
h -t 10.174435372 -s 0 -d 7 -p tcp -e 1060 -c 2 -a 0 -i 50 -k RTR
+ -t 10.174435372 -s 0 -d -1 -p tcp -e 1040 -c 2 -a 0 -i 51 -k AGT 
- -t 10.174435372 -s 0 -d -1 -p tcp -e 1040 -c 2 -a 0 -i 51 -k AGT
h -t 10.174435372 -s 0 -d -1 -p tcp -e 1040 -c 2 -a 0 -i 51 -k AGT
+ -t 10.174435372 -s 0 -d 7 -p tcp -e 1060 -c 2 -a 0 -i 51 -k RTR 
- -t 10.174435372 -s 0 -d 7 -p tcp -e 1060 -c 2 -a 0 -i 51 -k RTR
h -t 10.174435372 -s 0 -d 7 -p tcp -e 1060 -c 2 -a 0 -i 51 -k RTR
r -t 10.184501096 -s 7 -d 7 -p tcp -e 1060 -c 2 -a 0 -i 37 -k AGT
+ -t 10.184501096 -s 7 -d -1 -p ack -e 40 -c 2 -a 0 -i 52 -k AGT 
- -t 10.184501096 -s 7 -d -1 -p ack -e 40 -c 2 -a 0 -i 52 -k AGT
h -t 10.184501096 -s 7 -d -1 -p ack -e 40 -c 2 -a 0 -i 52 -k AGT
+ -t 10.184501096 -s 7 -d 0 -p ack -e 60 -c 2 -a 0 -i 52 -k RTR 
- -t 10.184501096 -s 7 -d 0 -p ack -e 60 -c 2 -a 0 -i 52 -k RTR
h -t 10.184501096 -s 7 -d 0 -p ack -e 60 -c 2 -a 0 -i 52 -k RTR
r -t 10.186726821 -s 0 -d 0 -p ack -e 60 -c 2 -a 0 -i 44 -k AGT
+ -t 10.186726821 -s 0 -d -1 -p tcp -e 1040 -c 2 -a 0 -i 53 -k AGT 
- -t 10.186726821 -s 0 -d -1 -p tcp -e 1040 -c 2 -a 0 -i 53 -k AGT
h -t 10.186726821 -s 0 -d -1 -p tcp -e 1040 -c 2 -a 0 -i 53 -k AGT
+ -t 10.186726821 -s 0 -d 7 -p tcp -e 1060 -c 2 -a 0 -i 53 -k RTR 
- -t 10.186726821 -s 0 -d 7 -p tcp -e 1060 -c 2 -a 0 -i 53 -k RTR
h -t 10.186726821 -s 0 -d 7 -p tcp -e 1060 -c 2 -a 0 -i 53 -k RTR
+ -t 10.186726821 -s 0 -d -1 -p tcp -e 1040 -c 2 -a 0 -i 54 -k AGT 
- -t 10.186726821 -s 0 -d -1 -p tcp -e 1040 -c 2 -a 0 -i 54 -k AGT
h -t 10.186726821 -s 0 -d -1 -p tcp -e 1040 -c 2 -a 0 -i 54 -k AGT
+ -t 10.186726821 -s 0 -d 7 -p tcp -e 1060 -c 2 -a 0 -i 54 -k RTR 
- -t 10.186726821 -s 0 -d 7 -p tcp -e 1060 -c 2 -a 0 -i 54 -k RTR
h -t 10.186726821 -s 0 -d 7 -p tcp -e 1060 -c 2 -a 0 -i 54 -k RTR
r -t 10.196792546 -s 7 -d 7 -p tcp -e 1060 -c 2 -a 0 -i 38 -k AGT
+ -t 10.196792546 -s 7 -d -1 -p ack -e 40 -c 2 -a 0 -i 55 -k AGT 
- -t 10.196792546 -s 7 -d -1 -p ack -e 40 -c 2 -a 0 -i 55 -k AGT
h -t 10.196792546 -s 7 -d -1 -p ack -e 40 -c 2 -a 0 -i 55 -k AGT
+ -t 10.196792546 -s 7 -d 0 -p ack -e 60 -c 2 -a 0 -i 55 -k RTR 
- -t 10.196792546 -s 7 -d 0 -p ack -e 60 -c 2 -a 0 -i 55 -k RTR
h -t 10.196792546 -s 7 -d 0 -p ack -e 60 -c 2 -a 0 -i 55 -k RTR
r -t 10.206818845 -s 7 -d 7 -p tcp -e 1060 -c 2 -a 0 -i 39 -k AGT
+ -t 10.206818845 -s 7 -d -1 -p ack -e 40 -c 2 -a 0 -i 56 -k AGT 
- -t 10.206818845 -s 7 -d -1 -p ack -e 40 -c 2 -a 0 -i 56 -k AGT
h -t 10.206818845 -s 7 -d -1 -p ack -e 40 -c 2 -a 0 -i 56 -k AGT
+ -t 10.206818845 -s 7 -d 0 -p ack -e 60 -c 2 -a 0 -i 56 -k RTR 
- -t 10.206818845 -s 7 -d 0 -p ack -e 60 -c 2 -a 0 -i 56 -k RTR
h -t 10.206818845 -s 7 -d 0 -p ack -e 60 -c 2 -a 0 -i 56 -k RTR
r -t 10.209044569 -s 0 -d 0 -p ack -e 60 -c 2 -a 0 -i 47 -k AGT
+ -t 10.209044569 -s 0 -d -1 -p tcp -e 1040 -c 2 -a 0 -i 57 -k AGT 
- -t 10.209044569 -s 0 -d -1 -p tcp -e 1040 -c 2 -a 0 -i 57 -k AGT
h -t 10.209044569 -s 0 -d -1 -p tcp -e 1040 -c 2 -a 0 -i 57 -k AGT
+ -t 10.209044569 -s 0 -d 7 -p tcp -e 1060 -c 2 -a 0 -i 57 -k RTR 
- -t 10.209044569 -s 0 -d 7 -p tcp -e 1060 -c 2 -a 0 -i 57 -k RTR
h -t 10.209044569 -s 0 -d 7 -p tcp -e 1060 -c 2 -a 0 -i 57 -k RTR
+ -t 10.209044569 -s 0 -d -1 -p tcp -e 1040 -c 2 -a 0 -i 58 -k AGT 
- -t 10.209044569 -s 0 -d -1 -p tcp -e 1040 -c 2 -a 0 -i 58 -k AGT
h -t 10.209044569 -s 0 -d -1 -p tcp -e 1040 -c 2 -a 0 -i 58 -k AGT
+ -t 10.209044569 -s 0 -d 7 -p tcp -e 1060 -c 2 -a 0 -i 58 -k RTR 
- -t 10.209044569 -s 0 -d 7 -p tcp -e 1060 -c 2 -a 0 -i 58 -k RTR
h -t 10.209044569 -s 0 -d 7 -p tcp -e 1060 -c 2 -a 0 -i 58 -k RTR
r -t 10.211250868 -s 0 -d 0 -p ack -e 60 -c 2 -a 0 -i 52 -k AGT
+ -t 10.211250868 -s 0 -d -1 -p tcp -e 1040 -c 2 -a 0 -i 59 -k AGT 
- -t 10.211250868 -s 0 -d -1 -p tcp -e 1040 -c 2 -a 0 -i 59 -k AGT
h -t 10.211250868 -s 0 -d -1 -p tcp -e 1040 -c 2 -a 0 -i 59 -k AGT
+ -t 10.211250868 -s 0 -d 7 -p tcp -e 1060 -c 2 -a 0 -i 59 -k RTR 
- -t 10.211250868 -s 0 -d 7 -p tcp -e 1060 -c 2 -a 0 -i 59 -k RTR
h -t 10.211250868 -s 0 -d 7 -p tcp -e 1060 -c 2 -a 0 -i 59 -k RTR
+ -t 10.211250868 -s 0 -d -1 -p tcp -e 1040 -c 2 -a 0 -i 60 -k AGT 
- -t 10.211250868 -s 0 -d -1 -p tcp -e 1040 -c 2 -a 0 -i 60 -k AGT
h -t 10.211250868 -s 0 -d -1 -p tcp -e 1040 -c 2 -a 0 -i 60 -k AGT
+ -t 10.211250868 -s 0 -d 7 -p tcp -e 1060 -c 2 -a 0 -i 60 -k RTR 
- -t 10.211250868 -s 0 -d 7 -p tcp -e 1060 -c 2 -a 0 -i 60 -k RTR
h -t 10.211250868 -s 0 -d 7 -p tcp -e 1060 -c 2 -a 0 -i 60 -k RTR
r -t 10.221376592 -s 7 -d 7 -p tcp -e 1060 -c 2 -a 0 -i 40 -k AGT
+ -t 10.221376592 -s 7 -d -1 -p ack -e 40 -c 2 -a 0 -i 61 -k AGT 
- -t 10.221376592 -s 7 -d -1 -p ack -e 40 -c 2 -a 0 -i 61 -k AGT
h -t 10.221376592 -s 7 -d -1 -p ack -e 40 -c 2 -a 0 -i 61 -k AGT
+ -t 10.221376592 -s 7 -d 0 -p ack -e 60 -c 2 -a 0 -i 61 -k RTR 
- -t 10.221376592 -s 7 -d 0 -p ack -e 60 -c 2 -a 0 -i 61 -k RTR
h -t 10.221376592 -s 7 -d 0 -p ack -e 60 -c 2 -a 0 -i 61 -k RTR
r -t 10.223422316 -s 0 -d 0 -p ack -e 60 -c 2 -a 0 -i 55 -k AGT
+ -t 10.223422316 -s 0 -d -1 -p tcp -e 1040 -c 2 -a 0 -i 62 -k AGT 
- -t 10.223422316 -s 0 -d -1 -p tcp -e 1040 -c 2 -a 0 -i 62 -k AGT
h -t 10.223422316 -s 0 -d -1 -p tcp -e 1040 -c 2 -a 0 -i 62 -k AGT
+ -t 10.223422316 -s 0 -d 7 -p tcp -e 1060 -c 2 -a 0 -i 62 -k RTR 
- -t 10.223422316 -s 0 -d 7 -p tcp -e 1060 -c 2 -a 0 -i 62 -k RTR
h -t 10.223422316 -s 0 -d 7 -p tcp -e 1060 -c 2 -a 0 -i 62 -k RTR
+ -t 10.223422316 -s 0 -d -1 -p tcp -e 1040 -c 2 -a 0 -i 63 -k AGT 
- -t 10.223422316 -s 0 -d -1 -p tcp -e 1040 -c 2 -a 0 -i 63 -k AGT
h -t 10.223422316 -s 0 -d -1 -p tcp -e 1040 -c 2 -a 0 -i 63 -k AGT
+ -t 10.223422316 -s 0 -d 7 -p tcp -e 1060 -c 2 -a 0 -i 63 -k RTR 
- -t 10.223422316 -s 0 -d 7 -p tcp -e 1060 -c 2 -a 0 -i 63 -k RTR
h -t 10.223422316 -s 0 -d 7 -p tcp -e 1060 -c 2 -a 0 -i 63 -k RTR
r -t 10.233528041 -s 7 -d 7 -p tcp -e 1060 -c 2 -a 0 -i 41 -k AGT
+ -t 10.233528041 -s 7 -d -1 -p ack -e 40 -c 2 -a 0 -i 64 -k AGT 
- -t 10.233528041 -s 7 -d -1 -p ack -e 40 -c 2 -a 0 -i 64 -k AGT
h -t 10.233528041 -s 7 -d -1 -p ack -e 40 -c 2 -a 0 -i 64 -k AGT
+ -t 10.233528041 -s 7 -d 0 -p ack -e 60 -c 2 -a 0 -i 64 -k RTR 
- -t 10.233528041 -s 7 -d 0 -p ack -e 60 -c 2 -a 0 -i 64 -k RTR
h -t 10.233528041 -s 7 -d 0 -p ack -e 60 -c 2 -a 0 -i 64 -k RTR
r -t 10.235853765 -s 0 -d 0 -p ack -e 60 -c 2 -a 0 -i 56 -k AGT
+ -t 10.235853765 -s 0 -d -1 -p tcp -e 1040 -c 2 -a 0 -i 65 -k AGT 
- -t 10.235853765 -s 0 -d -1 -p tcp -e 1040 -c 2 -a 0 -i 65 -k AGT
h -t 10.235853765 -s 0 -d -1 -p tcp -e 1040 -c 2 -a 0 -i 65 -k AGT