n -t * -s 0  -x 289 -y 450 -Z 0 -z 20  -v circle -c black
n -t * -s 1  -x 571 -y 403 -Z 0 -z 20  -v circle -c black
n -t * -s 2  -x 796 -y 452 -Z 0 -z 20  -v circle -c black
n -t * -s 3  -x 737 -y 236 -Z 0 -z 20  -v circle -c black
n -t * -s 4  -x 467 -y 207 -Z 0 -z 20  -v circle -c black
n -t * -s 5  -x 424 -y 437 -Z 0 -z 20  -v circle -c black
n -t * -s 6  -x 313 -y 334 -Z 0 -z 20  -v circle -c black
V -t * -v 1.0a5 -a 0
W -t * -x 896 -y 552
A -t * -n 1 -p 0 -o 0x7fffffff -c 30 -a 1
A -t * -h 1 -m 1073741823 -s 0
+ -t 0.034797973 -s 0 -d -1 -p message -e 32 -c 2 -a 0 -i 0 -k RTR 
- -t 0.034797973 -s 0 -d -1 -p message -e 32 -c 2 -a 0 -i 0 -k RTR
h -t 0.034797973 -s 0 -d -1 -p message -e 32 -c 2 -a 0 -i 0 -k RTR
+ -t 0.035112973 -s 0 -d -1 -p message -e 90 -c 2 -a 0 -i 0 -k MAC 
- -t 0.035112973 -s 0 -d -1 -p message -e 90 -c 2 -a 0 -i 0 -k MAC
h -t 0.035112973 -s 0 -d -1 -p message -e 90 -c 2 -a 0 -i 0 -k MAC
r -t 0.035833368 -s 6 -d -1 -p message -e 32 -c 2 -a 0 -i 0 -k MAC
r -t 0.035833425 -s 5 -d -1 -p message -e 32 -c 2 -a 0 -i 0 -k MAC
r -t 0.035858368 -s 6 -d -1 -p message -e 32 -c 2 -a 0 -i 0 -k RTR
r -t 0.035858425 -s 5 -d -1 -p message -e 32 -c 2 -a 0 -i 0 -k RTR
+ -t 0.176673288 -s 1 -d -1 -p message -e 32 -c 2 -a 0 -i 1 -k RTR 
- -t 0.176673288 -s 1 -d -1 -p message -e 32 -c 2 -a 0 -i 1 -k RTR
h -t 0.176673288 -s 1 -d -1 -p message -e 32 -c 2 -a 0 -i 1 -k RTR
+ -t 0.177108288 -s 1 -d -1 -p message -e 90 -c 2 -a 0 -i 1 -k MAC 
- -t 0.177108288 -s 1 -d -1 -p message -e 90 -c 2 -a 0 -i 1 -k MAC
h -t 0.177108288 -s 1 -d -1 -p message -e 90 -c 2 -a 0 -i 1 -k MAC
r -t 0.177828791 -s 5 -d -1 -p message -e 32 -c 2 -a 0 -i 1 -k MAC
r -t 0.177829028 -s 4 -d -1 -p message -e 32 -c 2 -a 0 -i 1 -k MAC
r -t 0.177829056 -s 2 -d -1 -p message -e 32 -c 2 -a 0 -i 1 -k MAC
r -t 0.177829073 -s 3 -d -1 -p message -e 32 -c 2 -a 0 -i 1 -k MAC
r -t 0.177853791 -s 5 -d -1 -p message -e 32 -c 2 -a 0 -i 1 -k RTR
r -t 0.177854028 -s 4 -d -1 -p message -e 32 -c 2 -a 0 -i 1 -k RTR
r -t 0.177854056 -s 2 -d -1 -p message -e 32 -c 2 -a 0 -i 1 -k RTR
r -t 0.177854073 -s 3 -d -1 -p message -e 32 -c 2 -a 0 -i 1 -k RTR
+ -t 0.473440071 -s 6 -d -1 -p message -e 32 -c 2 -a 0 -i 2 -k RTR 
- -t 0.473440071 -s 6 -d -1 -p message -e 32 -c 2 -a 0 -i 2 -k RTR
h -t 0.473440071 -s 6 -d -1 -p message -e 32 -c 2 -a 0 -i 2 -k RTR
+ -t 0.473855071 -s 6 -d -1 -p message -e 90 -c 2 -a 0 -i 2 -k MAC 
- -t 0.473855071 -s 6 -d -1 -p message -e 90 -c 2 -a 0 -i 2 -k MAC
h -t 0.473855071 -s 6 -d -1 -p message -e 90 -c 2 -a 0 -i 2 -k MAC
r -t 0.474575466 -s 0 -d -1 -p message -e 32 -c 2 -a 0 -i 2 -k MAC
r -t 0.474575576 -s 5 -d -1 -p message -e 32 -c 2 -a 0 -i 2 -k MAC
r -t 0.474575736 -s 4 -d -1 -p message -e 32 -c 2 -a 0 -i 2 -k MAC
r -t 0.474600466 -s 0 -d -1 -p message -e 32 -c 2 -a 0 -i 2 -k RTR
r -t 0.474600576 -s 5 -d -1 -p message -e 32 -c 2 -a 0 -i 2 -k RTR
r -t 0.474600736 -s 4 -d -1 -p message -e 32 -c 2 -a 0 -i 2 -k RTR
n -t 0.500000 -s 5 -x 424.000000 -y 437.000000 -U -2.015011 -V -19.898234 -T 11.910605
+ -t 0.629410954 -s 4 -d -1 -p message -e 32 -c 2 -a 0 -i 3 -k RTR 
- -t 0.629410954 -s 4 -d -1 -p message -e 32 -c 2 -a 0 -i 3 -k RTR
h -t 0.629410954 -s 4 -d -1 -p message -e 32 -c 2 -a 0 -i 3 -k RTR
+ -t 0.629505954 -s 4 -d -1 -p message -e 90 -c 2 -a 0 -i 3 -k MAC 
- -t 0.629505954 -s 4 -d -1 -p message -e 90 -c 2 -a 0 -i 3 -k MAC
h -t 0.629505954 -s 4 -d -1 -p message -e 90 -c 2 -a 0 -i 3 -k MAC
r -t 0.630226619 -s 6 -d -1 -p message -e 32 -c 2 -a 0 -i 3 -k MAC
r -t 0.630226693 -s 1 -d -1 -p message -e 32 -c 2 -a 0 -i 3 -k MAC
r -t 0.630226725 -s 5 -d -1 -p message -e 32 -c 2 -a 0 -i 3 -k MAC
r -t 0.630251619 -s 6 -d -1 -p message -e 32 -c 2 -a 0 -i 3 -k RTR
r -t 0.630251693 -s 1 -d -1 -p message -e 32 -c 2 -a 0 -i 3 -k RTR
r -t 0.630251725 -s 5 -d -1 -p message -e 32 -c 2 -a 0 -i 3 -k RTR
+ -t 0.887007923 -s 2 -d -1 -p message -e 32 -c 2 -a 0 -i 4 -k RTR 
- -t 0.887007923 -s 2 -d -1 -p message -e 32 -c 2 -a 0 -i 4 -k RTR
h -t 0.887007923 -s 2 -d -1 -p message -e 32 -c 2 -a 0 -i 4 -k RTR
+ -t 0.887662923 -s 2 -d -1 -p message -e 90 -c 2 -a 0 -i 4 -k MAC 
- -t 0.887662923 -s 2 -d -1 -p message -e 90 -c 2 -a 0 -i 4 -k MAC
h -t 0.887662923 -s 2 -d -1 -p message -e 90 -c 2 -a 0 -i 4 -k MAC
r -t 0.888383670 -s 3 -d -1 -p message -e 32 -c 2 -a 0 -i 4 -k MAC
r -t 0.888383691 -s 1 -d -1 -p message -e 32 -c 2 -a 0 -i 4 -k MAC
r -t 0.888408670 -s 3 -d -1 -p message -e 32 -c 2 -a 0 -i 4 -k RTR
r -t 0.888408691 -s 1 -d -1 -p message -e 32 -c 2 -a 0 -i 4 -k RTR
+ -t 1.600482502 -s 3 -d -1 -p message -e 32 -c 2 -a 0 -i 5 -k RTR 
- -t 1.600482502 -s 3 -d -1 -p message -e 32 -c 2 -a 0 -i 5 -k RTR
h -t 1.600482502 -s 3 -d -1 -p message -e 32 -c 2 -a 0 -i 5 -k RTR
+ -t 1.600597502 -s 3 -d -1 -p message -e 90 -c 2 -a 0 -i 5 -k MAC 
- -t 1.600597502 -s 3 -d -1 -p message -e 90 -c 2 -a 0 -i 5 -k MAC
h -t 1.600597502 -s 3 -d -1 -p message -e 90 -c 2 -a 0 -i 5 -k MAC
r -t 1.601318248 -s 2 -d -1 -p message -e 32 -c 2 -a 0 -i 5 -k MAC
r -t 1.601318286 -s 1 -d -1 -p message -e 32 -c 2 -a 0 -i 5 -k MAC
r -t 1.601343248 -s 2 -d -1 -p message -e 32 -c 2 -a 0 -i 5 -k RTR
r -t 1.601343286 -s 1 -d -1 -p message -e 32 -c 2 -a 0 -i 5 -k RTR
+ -t 1.640574422 -s 5 -d -1 -p message -e 32 -c 2 -a 0 -i 6 -k RTR 
- -t 1.640574422 -s 5 -d -1 -p message -e 32 -c 2 -a 0 -i 6 -k RTR
h -t 1.640574422 -s 5 -d -1 -p message -e 32 -c 2 -a 0 -i 6 -k RTR
+ -t 1.640729422 -s 5 -d -1 -p message -e 90 -c 2 -a 0 -i 6 -k MAC 
- -t 1.640729422 -s 5 -d -1 -p message -e 90 -c 2 -a 0 -i 6 -k MAC
h -t 1.640729422 -s 5 -d -1 -p message -e 90 -c 2 -a 0 -i 6 -k MAC
r -t 1.641449872 -s 6 -d -1 -p message -e 32 -c 2 -a 0 -i 6 -k MAC
r -t 1.641449880 -s 0 -d -1 -p message -e 32 -c 2 -a 0 -i 6 -k MAC
r -t 1.641449921 -s 1 -d -1 -p message -e 32 -c 2 -a 0 -i 6 -k MAC
r -t 1.641450129 -s 4 -d -1 -p message -e 32 -c 2 -a 0 -i 6 -k MAC
r -t 1.641474872 -s 6 -d -1 -p message -e 32 -c 2 -a 0 -i 6 -k RTR
r -t 1.641474880 -s 0 -d -1 -p message -e 32 -c 2 -a 0 -i 6 -k RTR
r -t 1.641474921 -s 1 -d -1 -p message -e 32 -c 2 -a 0 -i 6 -k RTR
r -t 1.641475129 -s 4 -d -1 -p message -e 32 -c 2 -a 0 -i 6 -k RTR
+ -t 12.037732077 -s 5 -d -1 -p message -e 32 -c 2 -a 0 -i 8 -k RTR 
- -t 12.037732077 -s 5 -d -1 -p message -e 32 -c 2 -a 0 -i 8 -k RTR
h -t 12.037732077 -s 5 -d -1 -p message -e 32 -c 2 -a 0 -i 8 -k RTR
+ -t 12.038327077 -s 5 -d -1 -p message -e 90 -c 2 -a 0 -i 8 -k MAC 
- -t 12.038327077 -s 5 -d -1 -p message -e 90 -c 2 -a 0 -i 8 -k MAC
h -t 12.038327077 -s 5 -d -1 -p message -e 90 -c 2 -a 0 -i 8 -k MAC
r -t 12.039047298 -s 4 -d -1 -p message -e 32 -c 2 -a 0 -i 8 -k MAC
r -t 12.039047591 -s 6 -d -1 -p message -e 32 -c 2 -a 0 -i 8 -k MAC
r -t 12.039072298 -s 4 -d -1 -p message -e 32 -c 2 -a 0 -i 8 -k RTR
r -t 12.039072591 -s 6 -d -1 -p message -e 32 -c 2 -a 0 -i 8 -k RTR
+ -t 12.039900443 -s 6 -d -1 -p message -e 32 -c 2 -a 0 -i 7 -k RTR 
- -t 12.039900443 -s 6 -d -1 -p message -e 32 -c 2 -a 0 -i 7 -k RTR
h -t 12.039900443 -s 6 -d -1 -p message -e 32 -c 2 -a 0 -i 7 -k RTR
+ -t 12.040175443 -s 6 -d -1 -p message -e 90 -c 2 -a 0 -i 7 -k MAC 
- -t 12.040175443 -s 6 -d -1 -p message -e 90 -c 2 -a 0 -i 7 -k MAC
h -t 12.040175443 -s 6 -d -1 -p message -e 90 -c 2 -a 0 -i 7 -k MAC
r -t 12.040895838 -s 0 -d -1 -p message -e 32 -c 2 -a 0 -i 7 -k MAC
r -t 12.040895956 -s 5 -d -1 -p message -e 32 -c 2 -a 0 -i 7 -k MAC
r -t 12.040896108 -s 4 -d -1 -p message -e 32 -c 2 -a 0 -i 7 -k MAC
r -t 12.040920838 -s 0 -d -1 -p message -e 32 -c 2 -a 0 -i 7 -k RTR
r -t 12.040920956 -s 5 -d -1 -p message -e 32 -c 2 -a 0 -i 7 -k RTR
r -t 12.040921108 -s 4 -d -1 -p message -e 32 -c 2 -a 0 -i 7 -k RTR
+ -t 12.177962139 -s 2 -d -1 -p message -e 32 -c 2 -a 0 -i 10 -k RTR 
- -t 12.177962139 -s 2 -d -1 -p message -e 32 -c 2 -a 0 -i 10 -k RTR
h -t 12.177962139 -s 2 -d -1 -p message -e 32 -c 2 -a 0 -i 10 -k RTR
+ -t 12.178438054 -s 4 -d -1 -p message -e 32 -c 2 -a 0 -i 9 -k RTR 
- -t 12.178438054 -s 4 -d -1 -p message -e 32 -c 2 -a 0 -i 9 -k RTR
h -t 12.178438054 -s 4 -d -1 -p message -e 32 -c 2 -a 0 -i 9 -k RTR
+ -t 12.178537139 -s 2 -d -1 -p message -e 90 -c 2 -a 0 -i 10 -k MAC 
- -t 12.178537139 -s 2 -d -1 -p message -e 90 -c 2 -a 0 -i 10 -k MAC
h -t 12.178537139 -s 2 -d -1 -p message -e 90 -c 2 -a 0 -i 10 -k MAC
r -t 12.179257886 -s 3 -d -1 -p message -e 32 -c 2 -a 0 -i 10 -k MAC
r -t 12.179257907 -s 1 -d -1 -p message -e 32 -c 2 -a 0 -i 10 -k MAC
r -t 12.179282886 -s 3 -d -1 -p message -e 32 -c 2 -a 0 -i 10 -k RTR
r -t 12.179282907 -s 1 -d -1 -p message -e 32 -c 2 -a 0 -i 10 -k RTR
+ -t 12.179932507 -s 4 -d -1 -p message -e 90 -c 2 -a 0 -i 9 -k MAC 
- -t 12.179932507 -s 4 -d -1 -p message -e 90 -c 2 -a 0 -i 9 -k MAC
h -t 12.179932507 -s 4 -d -1 -p message -e 90 -c 2 -a 0 -i 9 -k MAC
r -t 12.180652728 -s 5 -d -1 -p message -e 32 -c 2 -a 0 -i 9 -k MAC
r -t 12.180653172 -s 6 -d -1 -p message -e 32 -c 2 -a 0 -i 9 -k MAC
r -t 12.180653246 -s 1 -d -1 -p message -e 32 -c 2 -a 0 -i 9 -k MAC
r -t 12.180677728 -s 5 -d -1 -p message -e 32 -c 2 -a 0 -i 9 -k RTR
r -t 12.180678172 -s 6 -d -1 -p message -e 32 -c 2 -a 0 -i 9 -k RTR
r -t 12.180678246 -s 1 -d -1 -p message -e 32 -c 2 -a 0 -i 9 -k RTR
+ -t 12.183804347 -s 3 -d -1 -p message -e 32 -c 2 -a 0 -i 11 -k RTR 
- -t 12.183804347 -s 3 -d -1 -p message -e 32 -c 2 -a 0 -i 11 -k RTR
h -t 12.183804347 -s 3 -d -1 -p message -e 32 -c 2 -a 0 -i 11 -k RTR
+ -t 12.184359347 -s 3 -d -1 -p message -e 90 -c 2 -a 0 -i 11 -k MAC 
- -t 12.184359347 -s 3 -d -1 -p message -e 90 -c 2 -a 0 -i 11 -k MAC
h -t 12.184359347 -s 3 -d -1 -p message -e 90 -c 2 -a 0 -i 11 -k MAC
r -t 12.185080093 -s 2 -d -1 -p message -e 32 -c 2 -a 0 -i 11 -k MAC
r -t 12.185080132 -s 1 -d -1 -p message -e 32 -c 2 -a 0 -i 11 -k MAC
r -t 12.185105093 -s 2 -d -1 -p message -e 32 -c 2 -a 0 -i 11 -k RTR
r -t 12.185105132 -s 1 -d -1 -p message -e 32 -c 2 -a 0 -i 11 -k RTR
+ -t 12.383489762 -s 6 -d -1 -p message -e 44 -c 2 -a 0 -i 12 -k RTR 
- -t 12.383489762 -s 6 -d -1 -p message -e 44 -c 2 -a 0 -i 12 -k RTR
h -t 12.383489762 -s 6 -d -1 -p message -e 44 -c 2 -a 0 -i 12 -k RTR
+ -t 12.383724762 -s 6 -d -1 -p message -e 102 -c 2 -a 0 -i 12 -k MAC 
- -t 12.383724762 -s 6 -d -1 -p message -e 102 -c 2 -a 0 -i 12 -k MAC
h -t 12.383724762 -s 6 -d -1 -p message -e 102 -c 2 -a 0 -i 12 -k MAC
r -t 12.384541157 -s 0 -d -1 -p message -e 44 -c 2 -a 0 -i 12 -k MAC
r -t 12.384541293 -s 5 -d -1 -p message -e 44 -c 2 -a 0 -i 12 -k MAC
r -t 12.384541428 -s 4 -d -1 -p message -e 44 -c 2 -a 0 -i 12 -k MAC
r -t 12.384566157 -s 0 -d -1 -p message -e 44 -c 2 -a 0 -i 12 -k RTR
r -t 12.384566293 -s 5 -d -1 -p message -e 44 -c 2 -a 0 -i 12 -k RTR
r -t 12.384566428 -s 4 -d -1 -p message -e 44 -c 2 -a 0 -i 12 -k RTR
+ -t 12.437731363 -s 0 -d -1 -p message -e 32 -c 2 -a 0 -i 13 -k RTR 
- -t 12.437731363 -s 0 -d -1 -p message -e 32 -c 2 -a 0 -i 13 -k RTR
h -t 12.437731363 -s 0 -d -1 -p message -e 32 -c 2 -a 0 -i 13 -k RTR
+ -t 12.437806363 -s 0 -d -1 -p message -e 90 -c 2 -a 0 -i 13 -k MAC 
- -t 12.437806363 -s 0 -d -1 -p message -e 90 -c 2 -a 0 -i 13 -k MAC
h -t 12.437806363 -s 0 -d -1 -p message -e 90 -c 2 -a 0 -i 13 -k MAC
r -t 12.438526758 -s 6 -d -1 -p message -e 32 -c 2 -a 0 -i 13 -k MAC
r -t 12.438551758 -s 6 -d -1 -p message -e 32 -c 2 -a 0 -i 13 -k RTR
+ -t 12.639719855 -s 1 -d -1 -p message -e 32 -c 2 -a 0 -i 14 -k RTR 
- -t 12.639719855 -s 1 -d -1 -p message -e 32 -c 2 -a 0 -i 14 -k RTR
h -t 12.639719855 -s 1 -d -1 -p message -e 32 -c 2 -a 0 -i 14 -k RTR
+ -t 12.640074855 -s 1 -d -1 -p message -e 90 -c 2 -a 0 -i 14 -k MAC 
- -t 12.640074855 -s 1 -d -1 -p message -e 90 -c 2 -a 0 -i 14 -k MAC
h -t 12.640074855 -s 1 -d -1 -p message -e 90 -c 2 -a 0 -i 14 -k MAC
r -t 12.640795595 -s 4 -d -1 -p message -e 32 -c 2 -a 0 -i 14 -k MAC
r -t 12.640795623 -s 2 -d -1 -p message -e 32 -c 2 -a 0 -i 14 -k MAC
r -t 12.640795640 -s 3 -d -1 -p message -e 32 -c 2 -a 0 -i 14 -k MAC
r -t 12.640820595 -s 4 -d -1 -p message -e 32 -c 2 -a 0 -i 14 -k RTR
r -t 12.640820623 -s 2 -d -1 -p message -e 32 -c 2 -a 0 -i 14 -k RTR
r -t 12.640820640 -s 3 -d -1 -p message -e 32 -c 2 -a 0 -i 14 -k RTR
+ -t 12.850702724 -s 4 -d -1 -p message -e 44 -c 2 -a 0 -i 15 -k RTR 
- -t 12.850702724 -s 4 -d -1 -p message -e 44 -c 2 -a 0 -i 15 -k RTR
h -t 12.850702724 -s 4 -d -1 -p message -e 44 -c 2 -a 0 -i 15 -k RTR
+ -t 12.850897724 -s 4 -d -1 -p message -e 102 -c 2 -a 0 -i 15 -k MAC 
- -t 12.850897724 -s 4 -d -1 -p message -e 102 -c 2 -a 0 -i 15 -k MAC
h -t 12.850897724 -s 4 -d -1 -p message -e 102 -c 2 -a 0 -i 15 -k MAC
r -t 12.851713949 -s 5 -d -1 -p message -e 44 -c 2 -a 0 -i 15 -k MAC
r -t 12.851714389 -s 6 -d -1 -p message -e 44 -c 2 -a 0 -i 15 -k MAC
r -t 12.851714464 -s 1 -d -1 -p message -e 44 -c 2 -a 0 -i 15 -k MAC
r -t 12.851738949 -s 5 -d -1 -p message -e 44 -c 2 -a 0 -i 15 -k RTR
r -t 12.851739389 -s 6 -d -1 -p message -e 44 -c 2 -a 0 -i 15 -k RTR
r -t 12.851739464 -s 1 -d -1 -p message -e 44 -c 2 -a 0 -i 15 -k RTR
+ -t 13.040775642 -s 5 -d -1 -p message -e 44 -c 2 -a 0 -i 16 -k RTR 
- -t 13.040775642 -s 5 -d -1 -p message -e 44 -c 2 -a 0 -i 16 -k RTR
h -t 13.040775642 -s 5 -d -1 -p message -e 44 -c 2 -a 0 -i 16 -k RTR
+ -t 13.041310642 -s 5 -d -1 -p message -e 102 -c 2 -a 0 -i 16 -k MAC 
- -t 13.041310642 -s 5 -d -1 -p message -e 102 -c 2 -a 0 -i 16 -k MAC
h -t 13.041310642 -s 5 -d -1 -p message -e 102 -c 2 -a 0 -i 16 -k MAC
r -t 13.042126866 -s 4 -d -1 -p message -e 44 -c 2 -a 0 -i 16 -k MAC
r -t 13.042127174 -s 6 -d -1 -p message -e 44 -c 2 -a 0 -i 16 -k MAC
r -t 13.042151866 -s 4 -d -1 -p message -e 44 -c 2 -a 0 -i 16 -k RTR
r -t 13.042152174 -s 6 -d -1 -p message -e 44 -c 2 -a 0 -i 16 -k RTR
+ -t 13.183183059 -s 3 -d -1 -p message -e 44 -c 2 -a 0 -i 17 -k RTR 
- -t 13.183183059 -s 3 -d -1 -p message -e 44 -c 2 -a 0 -i 17 -k RTR
h -t 13.183183059 -s 3 -d -1 -p message -e 44 -c 2 -a 0 -i 17 -k RTR
+ -t 13.183358059 -s 3 -d -1 -p message -e 102 -c 2 -a 0 -i 17 -k MAC 
- -t 13.183358059 -s 3 -d -1 -p message -e 102 -c 2 -a 0 -i 17 -k MAC
h -t 13.183358059 -s 3 -d -1 -p message -e 102 -c 2 -a 0 -i 17 -k MAC
r -t 13.184174805 -s 2 -d -1 -p message -e 44 -c 2 -a 0 -i 17 -k MAC
r -t 13.184174844 -s 1 -d -1 -p message -e 44 -c 2 -a 0 -i 17 -k MAC
r -t 13.184199805 -s 2 -d -1 -p message -e 44 -c 2 -a 0 -i 17 -k RTR
r -t 13.184199844 -s 1 -d -1 -p message -e 44 -c 2 -a 0 -i 17 -k RTR
+ -t 13.602225249 -s 2 -d -1 -p message -e 44 -c 2 -a 0 -i 20 -k RTR 
- -t 13.602225249 -s 2 -d -1 -p message -e 44 -c 2 -a 0 -i 20 -k RTR
h -t 13.602225249 -s 2 -d -1 -p message -e 44 -c 2 -a 0 -i 20 -k RTR
+ -t 13.602500249 -s 2 -d -1 -p message -e 102 -c 2 -a 0 -i 20 -k MAC 
- -t 13.602500249 -s 2 -d -1 -p message -e 102 -c 2 -a 0 -i 20 -k MAC
h -t 13.602500249 -s 2 -d -1 -p message -e 102 -c 2 -a 0 -i 20 -k MAC
r -t 13.603316996 -s 3 -d -1 -p message -e 44 -c 2 -a 0 -i 20 -k MAC
r -t 13.603317017 -s 1 -d -1 -p message -e 44 -c 2 -a 0 -i 20 -k MAC
r -t 13.603341996 -s 3 -d -1 -p message -e 44 -c 2 -a 0 -i 20 -k RTR
r -t 13.603342017 -s 1 -d -1 -p message -e 44 -c 2 -a 0 -i 20 -k RTR
+ -t 13.637532111 -s 1 -d -1 -p message -e 44 -c 2 -a 0 -i 21 -k RTR 
- -t 13.637532111 -s 1 -d -1 -p message -e 44 -c 2 -a 0 -i 21 -k RTR
h -t 13.637532111 -s 1 -d -1 -p message -e 44 -c 2 -a 0 -i 21 -k RTR
+ -t 13.638207111 -s 1 -d -1 -p message -e 102 -c 2 -a 0 -i 21 -k MAC 
- -t 13.638207111 -s 1 -d -1 -p message -e 102 -c 2 -a 0 -i 21 -k MAC
h -t 13.638207111 -s 1 -d -1 -p message -e 102 -c 2 -a 0 -i 21 -k MAC
r -t 13.639023850 -s 4 -d -1 -p message -e 44 -c 2 -a 0 -i 21 -k MAC
r -t 13.639023878 -s 2 -d -1 -p message -e 44 -c 2 -a 0 -i 21 -k MAC
r -t 13.639023896 -s 3 -d -1 -p message -e 44 -c 2 -a 0 -i 21 -k MAC
r -t 13.639048850 -s 4 -d -1 -p message -e 44 -c 2 -a 0 -i 21 -k RTR
r -t 13.639048878 -s 2 -d -1 -p message -e 44 -c 2 -a 0 -i 21 -k RTR
r -t 13.639048896 -s 3 -d -1 -p message -e 44 -c 2 -a 0 -i 21 -k RTR
+ -t 13.648833278 -s 6 -d -1 -p message -e 32 -c 2 -a 0 -i 22 -k RTR 
- -t 13.648833278 -s 6 -d -1 -p message -e 32 -c 2 -a 0 -i 22 -k RTR
h -t 13.648833278 -s 6 -d -1 -p message -e 32 -c 2 -a 0 -i 22 -k RTR
+ -t 13.649028278 -s 6 -d -1 -p message -e 90 -c 2 -a 0 -i 22 -k MAC 
- -t 13.649028278 -s 6 -d -1 -p message -e 90 -c 2 -a 0 -i 22 -k MAC
h -t 13.649028278 -s 6 -d -1 -p message -e 90 -c 2 -a 0 -i 22 -k MAC
+ -t 13.649494998 -s 0 -d -1 -p message -e 32 -c 2 -a 0 -i 23 -k RTR 
- -t 13.649494998 -s 0 -d -1 -p message -e 32 -c 2 -a 0 -i 23 -k RTR
h -t 13.649494998 -s 0 -d -1 -p message -e 32 -c 2 -a 0 -i 23 -k RTR
r -t 13.649748672 -s 0 -d -1 -p message -e 32 -c 2 -a 0 -i 22 -k MAC
r -t 13.649748810 -s 5 -d -1 -p message -e 32 -c 2 -a 0 -i 22 -k MAC
r -t 13.649748943 -s 4 -d -1 -p message -e 32 -c 2 -a 0 -i 22 -k MAC
r -t 13.649773672 -s 0 -d -1 -p message -e 32 -c 2 -a 0 -i 22 -k RTR
r -t 13.649773810 -s 5 -d -1 -p message -e 32 -c 2 -a 0 -i 22 -k RTR
r -t 13.649773943 -s 4 -d -1 -p message -e 32 -c 2 -a 0 -i 22 -k RTR
+ -t 13.650398672 -s 0 -d -1 -p message -e 90 -c 2 -a 0 -i 23 -k MAC 
- -t 13.650398672 -s 0 -d -1 -p message -e 90 -c 2 -a 0 -i 23 -k MAC
h -t 13.650398672 -s 0 -d -1 -p message -e 90 -c 2 -a 0 -i 23 -k MAC
r -t 13.651119067 -s 6 -d -1 -p message -e 32 -c 2 -a 0 -i 23 -k MAC
r -t 13.651144067 -s 6 -d -1 -p message -e 32 -c 2 -a 0 -i 23 -k RTR
+ -t 13.759542271 -s 3 -d -1 -p message -e 56 -c 2 -a 0 -i 24 -k RTR 
- -t 13.759542271 -s 3 -d -1 -p message -e 56 -c 2 -a 0 -i 24 -k RTR
h -t 13.759542271 -s 3 -d -1 -p message -e 56 -c 2 -a 0 -i 24 -k RTR
+ -t 13.759917271 -s 3 -d -1 -p message -e 114 -c 2 -a 0 -i 24 -k MAC 
- -t 13.759917271 -s 3 -d -1 -p message -e 114 -c 2 -a 0 -i 24 -k MAC
h -t 13.759917271 -s 3 -d -1 -p message -e 114 -c 2 -a 0 -i 24 -k MAC
r -t 13.760830017 -s 2 -d -1 -p message -e 56 -c 2 -a 0 -i 24 -k MAC
r -t 13.760830056 -s 1 -d -1 -p message -e 56 -c 2 -a 0 -i 24 -k MAC
r -t 13.760855017 -s 2 -d -1 -p message -e 56 -c 2 -a 0 -i 24 -k RTR
r -t 13.760855056 -s 1 -d -1 -p message -e 56 -c 2 -a 0 -i 24 -k RTR
+ -t 13.830235103 -s 1 -d -1 -p message -e 56 -c 2 -a 0 -i 25 -k RTR 
- -t 13.830235103 -s 1 -d -1 -p message -e 56 -c 2 -a 0 -i 25 -k RTR
h -t 13.830235103 -s 1 -d -1 -p message -e 56 -c 2 -a 0 -i 25 -k RTR
+ -t 13.830530103 -s 1 -d -1 -p message -e 114 -c 2 -a 0 -i 25 -k MAC 
- -t 13.830530103 -s 1 -d -1 -p message -e 114 -c 2 -a 0 -i 25 -k MAC
h -t 13.830530103 -s 1 -d -1 -p message -e 114 -c 2 -a 0 -i 25 -k MAC
r -t 13.831442842 -s 4 -d -1 -p message -e 56 -c 2 -a 0 -i 25 -k MAC
r -t 13.831442870 -s 2 -d -1 -p message -e 56 -c 2 -a 0 -i 25 -k MAC
r -t 13.831442888 -s 3 -d -1 -p message -e 56 -c 2 -a 0 -i 25 -k MAC
r -t 13.831467842 -s 4 -d -1 -p message -e 56 -c 2 -a 0 -i 25 -k RTR
r -t 13.831467870 -s 2 -d -1 -p message -e 56 -c 2 -a 0 -i 25 -k RTR
r -t 13.831467888 -s 3 -d -1 -p message -e 56 -c 2 -a 0 -i 25 -k RTR
+ -t 13.850710249 -s 4 -d -1 -p message -e 32 -c 2 -a 0 -i 26 -k RTR 
- -t 13.850710249 -s 4 -d -1 -p message -e 32 -c 2 -a 0 -i 26 -k RTR
h -t 13.850710249 -s 4 -d -1 -p message -e 32 -c 2 -a 0 -i 26 -k RTR
+ -t 13.851225249 -s 4 -d -1 -p message -e 90 -c 2 -a 0 -i 26 -k MAC 
- -t 13.851225249 -s 4 -d -1 -p message -e 90 -c 2 -a 0 -i 26 -k MAC
h -t 13.851225249 -s 4 -d -1 -p message -e 90 -c 2 -a 0 -i 26 -k MAC
r -t 13.851945474 -s 5 -d -1 -p message -e 32 -c 2 -a 0 -i 26 -k MAC
r -t 13.851945915 -s 6 -d -1 -p message -e 32 -c 2 -a 0 -i 26 -k MAC
r -t 13.851945989 -s 1 -d -1 -p message -e 32 -c 2 -a 0 -i 26 -k MAC
r -t 13.851970474 -s 5 -d -1 -p message -e 32 -c 2 -a 0 -i 26 -k RTR
r -t 13.851970915 -s 6 -d -1 -p message -e 32 -c 2 -a 0 -i 26 -k RTR
r -t 13.851970989 -s 1 -d -1 -p message -e 32 -c 2 -a 0 -i 26 -k RTR
+ -t 14.732149859 -s 2 -d -1 -p message -e 32 -c 2 -a 0 -i 27 -k RTR 
- -t 14.732149859 -s 2 -d -1 -p message -e 32 -c 2 -a 0 -i 27 -k RTR
h -t 14.732149859 -s 2 -d -1 -p message -e 32 -c 2 -a 0 -i 27 -k RTR
+ -t 14.732444859 -s 2 -d -1 -p message -e 90 -c 2 -a 0 -i 27 -k MAC 
- -t 14.732444859 -s 2 -d -1 -p message -e 90 -c 2 -a 0 -i 27 -k MAC
h -t 14.732444859 -s 2 -d -1 -p message -e 90 -c 2 -a 0 -i 27 -k MAC
r -t 14.733165605 -s 3 -d -1 -p message -e 32 -c 2 -a 0 -i 27 -k MAC
r -t 14.733165626 -s 1 -d -1 -p message -e 32 -c 2 -a 0 -i 27 -k MAC
r -t 14.733190605 -s 3 -d -1 -p message -e 32 -c 2 -a 0 -i 27 -k RTR
r -t 14.733190626 -s 1 -d -1 -p message -e 32 -c 2 -a 0 -i 27 -k RTR
+ -t 16.285310187 -s 5 -d -1 -p message -e 56 -c 2 -a 0 -i 29 -k RTR 
- -t 16.285310187 -s 5 -d -1 -p message -e 56 -c 2 -a 0 -i 29 -k RTR
h -t 16.285310187 -s 5 -d -1 -p message -e 56 -c 2 -a 0 -i 29 -k RTR
+ -t 16.285705187 -s 5 -d -1 -p message -e 114 -c 2 -a 0 -i 29 -k MAC 
- -t 16.285705187 -s 5 -d -1 -p message -e 114 -c 2 -a 0 -i 29 -k MAC
h -t 16.285705187 -s 5 -d -1 -p message -e 114 -c 2 -a 0 -i 29 -k MAC
r -t 16.286617411 -s 4 -d -1 -p message -e 56 -c 2 -a 0 -i 29 -k MAC
r -t 16.286617719 -s 6 -d -1 -p message -e 56 -c 2 -a 0 -i 29 -k MAC
r -t 16.286642411 -s 4 -d -1 -p message -e 56 -c 2 -a 0 -i 29 -k RTR
r -t 16.286642719 -s 6 -d -1 -p message -e 56 -c 2 -a 0 -i 29 -k RTR
+ -t 24.039391712 -s 4 -d -1 -p message -e 44 -c 2 -a 0 -i 30 -k RTR 
- -t 24.039391712 -s 4 -d -1 -p message -e 44 -c 2 -a 0 -i 30 -k RTR
h -t 24.039391712 -s 4 -d -1 -p message -e 44 -c 2 -a 0 -i 30 -k RTR
+ -t 24.039786712 -s 4 -d -1 -p message -e 102 -c 2 -a 0 -i 30 -k MAC 
- -t 24.039786712 -s 4 -d -1 -p message -e 102 -c 2 -a 0 -i 30 -k MAC
h -t 24.039786712 -s 4 -d -1 -p message -e 102 -c 2 -a 0 -i 30 -k MAC
r -t 24.040602937 -s 5 -d -1 -p message -e 44 -c 2 -a 0 -i 30 -k MAC
r -t 24.040603378 -s 6 -d -1 -p message -e 44 -c 2 -a 0 -i 30 -k MAC
r -t 24.040603452 -s 1 -d -1 -p message -e 44 -c 2 -a 0 -i 30 -k MAC
r -t 24.040627937 -s 5 -d -1 -p message -e 44 -c 2 -a 0 -i 30 -k RTR
r -t 24.040628378 -s 6 -d -1 -p message -e 44 -c 2 -a 0 -i 30 -k RTR
r -t 24.040628452 -s 1 -d -1 -p message -e 44 -c 2 -a 0 -i 30 -k RTR
+ -t 24.188574456 -s 6 -d -1 -p message -e 56 -c 2 -a 0 -i 31 -k RTR 
- -t 24.188574456 -s 6 -d -1 -p message -e 56 -c 2 -a 0 -i 31 -k RTR
h -t 24.188574456 -s 6 -d -1 -p message -e 56 -c 2 -a 0 -i 31 -k RTR
+ -t 24.188909456 -s 6 -d -1 -p message -e 114 -c 2 -a 0 -i 31 -k MAC 
- -t 24.188909456 -s 6 -d -1 -p message -e 114 -c 2 -a 0 -i 31 -k MAC
h -t 24.188909456 -s 6 -d -1 -p message -e 114 -c 2 -a 0 -i 31 -k MAC
r -t 24.189821850 -s 0 -d -1 -p message -e 56 -c 2 -a 0 -i 31 -k MAC
r -t 24.189821988 -s 5 -d -1 -p message -e 56 -c 2 -a 0 -i 31 -k MAC
r -t 24.189822121 -s 4 -d -1 -p message -e 56 -c 2 -a 0 -i 31 -k MAC
r -t 24.189846850 -s 0 -d -1 -p message -e 56 -c 2 -a 0 -i 31 -k RTR
r -t 24.189846988 -s 5 -d -1 -p message -e 56 -c 2 -a 0 -i 31 -k RTR
r -t 24.189847121 -s 4 -d -1 -p message -e 56 -c 2 -a 0 -i 31 -k RTR
+ -t 24.608639909 -s 6 -d -1 -p message -e 68 -c 2 -a 0 -i 32 -k RTR 
- -t 24.608639909 -s 6 -d -1 -p message -e 68 -c 2 -a 0 -i 32 -k RTR
h -t 24.608639909 -s 6 -d -1 -p message -e 68 -c 2 -a 0 -i 32 -k RTR
+ -t 24.609234909 -s 6 -d -1 -p message -e 126 -c 2 -a 0 -i 32 -k MAC 
- -t 24.609234909 -s 6 -d -1 -p message -e 126 -c 2 -a 0 -i 32 -k MAC
h -t 24.609234909 -s 6 -d -1 -p message -e 126 -c 2 -a 0 -i 32 -k MAC
r -t 24.610243304 -s 0 -d -1 -p message -e 68 -c 2 -a 0 -i 32 -k MAC
r -t 24.610243441 -s 5 -d -1 -p message -e 68 -c 2 -a 0 -i 32 -k MAC
r -t 24.610243574 -s 4 -d -1 -p message -e 68 -c 2 -a 0 -i 32 -k MAC
r -t 24.610268304 -s 0 -d -1 -p message -e 68 -c 2 -a 0 -i 32 -k RTR
r -t 24.610268441 -s 5 -d -1 -p message -e 68 -c 2 -a 0 -i 32 -k RTR
r -t 24.610268574 -s 4 -d -1 -p message -e 68 -c 2 -a 0 -i 32 -k RTR
+ -t 24.642012411 -s 3 -d -1 -p message -e 44 -c 2 -a 0 -i 34 -k RTR 
- -t 24.642012411 -s 3 -d -1 -p message -e 44 -c 2 -a 0 -i 34 -k RTR
h -t 24.642012411 -s 3 -d -1 -p message -e 44 -c 2 -a 0 -i 34 -k RTR
+ -t 24.642107411 -s 3 -d -1 -p message -e 102 -c 2 -a 0 -i 34 -k MAC 
- -t 24.642107411 -s 3 -d -1 -p message -e 102 -c 2 -a 0 -i 34 -k MAC
h -t 24.642107411 -s 3 -d -1 -p message -e 102 -c 2 -a 0 -i 34 -k MAC
r -t 24.642924158 -s 2 -d -1 -p message -e 44 -c 2 -a 0 -i 34 -k MAC
r -t 24.642924196 -s 1 -d -1 -p message -e 44 -c 2 -a 0 -i 34 -k MAC
r -t 24.642949158 -s 2 -d -1 -p message -e 44 -c 2 -a 0 -i 34 -k RTR
r -t 24.642949196 -s 1 -d -1 -p message -e 44 -c 2 -a 0 -i 34 -k RTR
+ -t 24.644132743 -s 2 -d -1 -p message -e 56 -c 2 -a 0 -i 33 -k RTR 
- -t 24.644132743 -s 2 -d -1 -p message -e 56 -c 2 -a 0 -i 33 -k RTR
h -t 24.644132743 -s 2 -d -1 -p message -e 56 -c 2 -a 0 -i 33 -k RTR
+ -t 24.644467743 -s 2 -d -1 -p message -e 114 -c 2 -a 0 -i 33 -k MAC 
- -t 24.644467743 -s 2 -d -1 -p message -e 114 -c 2 -a 0 -i 33 -k MAC
h -t 24.644467743 -s 2 -d -1 -p message -e 114 -c 2 -a 0 -i 33 -k MAC
r -t 24.645380489 -s 3 -d -1 -p message -e 56 -c 2 -a 0 -i 33 -k MAC
r -t 24.645380510 -s 1 -d -1 -p message -e 56 -c 2 -a 0 -i 33 -k MAC
r -t 24.645405489 -s 3 -d -1 -p message -e 56 -c 2 -a 0 -i 33 -k RTR
r -t 24.645405510 -s 1 -d -1 -p message -e 56 -c 2 -a 0 -i 33 -k RTR
+ -t 24.768057579 -s 4 -d -1 -p message -e 44 -c 2 -a 0 -i 35 -k RTR 
- -t 24.768057579 -s 4 -d -1 -p message -e 44 -c 2 -a 0 -i 35 -k RTR
h -t 24.768057579 -s 4 -d -1 -p message -e 44 -c 2 -a 0 -i 35 -k RTR
+ -t 24.768572579 -s 4 -d -1 -p message -e 102 -c 2 -a 0 -i 35 -k MAC 
- -t 24.768572579 -s 4 -d -1 -p message -e 102 -c 2 -a 0 -i 35 -k MAC
h -t 24.768572579 -s 4 -d -1 -p message -e 102 -c 2 -a 0 -i 35 -k MAC
r -t 24.769388804 -s 5 -d -1 -p message -e 44 -c 2 -a 0 -i 35 -k MAC
r -t 24.769389245 -s 6 -d -1 -p message -e 44 -c 2 -a 0 -i 35 -k MAC
r -t 24.769389319 -s 1 -d -1 -p message -e 44 -c 2 -a 0 -i 35 -k MAC
r -t 24.769413804 -s 5 -d -1 -p message -e 44 -c 2 -a 0 -i 35 -k RTR
r -t 24.769414245 -s 6 -d -1 -p message -e 44 -c 2 -a 0 -i 35 -k RTR
r -t 24.769414319 -s 1 -d -1 -p message -e 44 -c 2 -a 0 -i 35 -k RTR
+ -t 24.921123434 -s 0 -d -1 -p message -e 44 -c 2 -a 0 -i 36 -k RTR 
- -t 24.921123434 -s 0 -d -1 -p message -e 44 -c 2 -a 0 -i 36 -k RTR
h -t 24.921123434 -s 0 -d -1 -p message -e 44 -c 2 -a 0 -i 36 -k RTR
+ -t 24.921378434 -s 0 -d -1 -p message -e 102 -c 2 -a 0 -i 36 -k MAC 
- -t 24.921378434 -s 0 -d -1 -p message -e 102 -c 2 -a 0 -i 36 -k MAC
h -t 24.921378434 -s 0 -d -1 -p message -e 102 -c 2 -a 0 -i 36 -k MAC
r -t 24.922194829 -s 6 -d -1 -p message -e 44 -c 2 -a 0 -i 36 -k MAC
r -t 24.922219829 -s 6 -d -1 -p message -e 44 -c 2 -a 0 -i 36 -k RTR
+ -t 25.077798476 -s 1 -d -1 -p message -e 56 -c 2 -a 0 -i 37 -k RTR 
- -t 25.077798476 -s 1 -d -1 -p message -e 56 -c 2 -a 0 -i 37 -k RTR
h -t 25.077798476 -s 1 -d -1 -p message -e 56 -c 2 -a 0 -i 37 -k RTR
+ -t 25.078113476 -s 1 -d -1 -p message -e 114 -c 2 -a 0 -i 37 -k MAC 
- -t 25.078113476 -s 1 -d -1 -p message -e 114 -c 2 -a 0 -i 37 -k MAC
h -t 25.078113476 -s 1 -d -1 -p message -e 114 -c 2 -a 0 -i 37 -k MAC
r -t 25.079026215 -s 4 -d -1 -p message -e 56 -c 2 -a 0 -i 37 -k MAC
r -t 25.079026243 -s 2 -d -1 -p message -e 56 -c 2 -a 0 -i 37 -k MAC
r -t 25.079026260 -s 3 -d -1 -p message -e 56 -c 2 -a 0 -i 37 -k MAC
r -t 25.079051215 -s 4 -d -1 -p message -e 56 -c 2 -a 0 -i 37 -k RTR
r -t 25.079051243 -s 2 -d -1 -p message -e 56 -c 2 -a 0 -i 37 -k RTR
r -t 25.079051260 -s 3 -d -1 -p message -e 56 -c 2 -a 0 -i 37 -k RTR
+ -t 25.571148641 -s 3 -d -1 -p message -e 56 -c 2 -a 0 -i 38 -k RTR 
- -t 25.571148641 -s 3 -d -1 -p message -e 56 -c 2 -a 0 -i 38 -k RTR
h -t 25.571148641 -s 3 -d -1 -p message -e 56 -c 2 -a 0 -i 38 -k RTR
+ -t 25.571763641 -s 3 -d -1 -p message -e 114 -c 2 -a 0 -i 38 -k MAC 
- -t 25.571763641 -s 3 -d -1 -p message -e 114 -c 2 -a 0 -i 38 -k MAC
h -t 25.571763641 -s 3 -d -1 -p message -e 114 -c 2 -a 0 -i 38 -k MAC
r -t 25.572676387 -s 2 -d -1 -p message -e 56 -c 2 -a 0 -i 38 -k MAC
r -t 25.572676426 -s 1 -d -1 -p message -e 56 -c 2 -a 0 -i 38 -k MAC
r -t 25.572701387 -s 2 -d -1 -p message -e 56 -c 2 -a 0 -i 38 -k RTR
r -t 25.572701426 -s 1 -d -1 -p message -e 56 -c 2 -a 0 -i 38 -k RTR
+ -t 25.764569768 -s 4 -d -1 -p message -e 32 -c 2 -a 0 -i 39 -k RTR 
- -t 25.764569768 -s 4 -d -1 -p message -e 32 -c 2 -a 0 -i 39 -k RTR
h -t 25.764569768 -s 4 -d -1 -p message -e 32 -c 2 -a 0 -i 39 -k RTR
+ -t 25.765224768 -s 4 -d -1 -p message -e 90 -c 2 -a 0 -i 39 -k MAC 
- -t 25.765224768 -s 4 -d -1 -p message -e 90 -c 2 -a 0 -i 39 -k MAC
h -t 25.765224768 -s 4 -d -1 -p message -e 90 -c 2 -a 0 -i 39 -k MAC
r -t 25.765944992 -s 5 -d -1 -p message -e 32 -c 2 -a 0 -i 39 -k MAC
r -t 25.765945433 -s 6 -d -1 -p message -e 32 -c 2 -a 0 -i 39 -k MAC
r -t 25.765945507 -s 1 -d -1 -p message -e 32 -c 2 -a 0 -i 39 -k MAC
r -t 25.765969992 -s 5 -d -1 -p message -e 32 -c 2 -a 0 -i 39 -k RTR
r -t 25.765970433 -s 6 -d -1 -p message -e 32 -c 2 -a 0 -i 39 -k RTR
r -t 25.765970507 -s 1 -d -1 -p message -e 32 -c 2 -a 0 -i 39 -k RTR
+ -t 25.837838665 -s 2 -d -1 -p message -e 44 -c 2 -a 0 -i 40 -k RTR 
- -t 25.837838665 -s 2 -d -1 -p message -e 44 -c 2 -a 0 -i 40 -k RTR
h -t 25.837838665 -s 2 -d -1 -p message -e 44 -c 2 -a 0 -i 40 -k RTR
+ -t 25.838053665 -s 2 -d -1 -p message -e 102 -c 2 -a 0 -i 40 -k MAC 
- -t 25.838053665 -s 2 -d -1 -p message -e 102 -c 2 -a 0 -i 40 -k MAC
h -t 25.838053665 -s 2 -d -1 -p message -e 102 -c 2 -a 0 -i 40 -k MAC
r -t 25.838870411 -s 3 -d -1 -p message -e 44 -c 2 -a 0 -i 40 -k MAC
r -t 25.838870432 -s 1 -d -1 -p message -e 44 -c 2 -a 0 -i 40 -k MAC
r -t 25.838895411 -s 3 -d -1 -p message -e 44 -c 2 -a 0 -i 40 -k RTR
r -t 25.838895432 -s 1 -d -1 -p message -e 44 -c 2 -a 0 -i 40 -k RTR
+ -t 26.569782059 -s 3 -d -1 -p message -e 32 -c 2 -a 0 -i 41 -k RTR 
- -t 26.569782059 -s 3 -d -1 -p message -e 32 -c 2 -a 0 -i 41 -k RTR
h -t 26.569782059 -s 3 -d -1 -p message -e 32 -c 2 -a 0 -i 41 -k RTR
+ -t 26.569957059 -s 3 -d -1 -p message -e 90 -c 2 -a 0 -i 41 -k MAC 
- -t 26.569957059 -s 3 -d -1 -p message -e 90 -c 2 -a 0 -i 41 -k MAC
h -t 26.569957059 -s 3 -d -1 -p message -e 90 -c 2 -a 0 -i 41 -k MAC
r -t 26.570677806 -s 2 -d -1 -p message -e 32 -c 2 -a 0 -i 41 -k MAC
r -t 26.570677844 -s 1 -d -1 -p message -e 32 -c 2 -a 0 -i 41 -k MAC
r -t 26.570702806 -s 2 -d -1 -p message -e 32 -c 2 -a 0 -i 41 -k RTR
r -t 26.570702844 -s 1 -d -1 -p message -e 32 -c 2 -a 0 -i 41 -k RTR