n -t * -s 0  -x 198 -y 470 -Z 0 -z 20  -v circle -c green
n -t * -s 1  -x 364 -y 470 -Z 0 -z 20  -v circle -c green
n -t * -s 2  -x 259 -y 380 -Z 0 -z 20  -v circle -c green
n -t * -s 3  -x 388 -y 365 -Z 0 -z 20  -v circle -c green
n -t * -s 4  -x 313 -y 285 -Z 0 -z 20  -v circle -c green
n -t * -s 5  -x 196 -y 287 -Z 0 -z 20  -v circle -c green
n -t * -s 6  -x 436 -y 252 -Z 0 -z 20  -v circle -c green
n -t * -s 7  -x 483 -y 406 -Z 0 -z 20  -v circle -c green
n -t * -s 8  -x 534 -y 481 -Z 0 -z 20  -v circle -c green
n -t * -s 9  -x 575 -y 394 -Z 0 -z 20  -v circle -c green
n -t * -s 10  -x 597 -y 295 -Z 0 -z 20  -v circle -c green
n -t * -s 11  -x 558 -y 210 -Z 0 -z 20  -v circle -c green
n -t * -s 12  -x 423 -y 134 -Z 0 -z 20  -v circle -c green
n -t * -s 13  -x 277 -y 154 -Z 0 -z 20  -v circle -c green
n -t * -s 14  -x 545 -y 104 -Z 0 -z 20  -v circle -c green
n -t * -s 15  -x 341 -y 72 -Z 0 -z 20  -v circle -c green
V -t * -v 1.0a5 -a 0
W -t * -x 800 -y 700
A -t * -n 1 -p 0 -o 0x7fffffff -c 30 -a 1
A -t * -h 1 -m 1073741823 -s 0
n -t 1.000000 -s 3 -x 388.000000 -y 365.000000 -U 8.648971 -V -5.019492 -T 12.949517
+ -t 1.000000000 -s 5 -d -1 -p tcp -e 40 -c 2 -a 0 -i 0 -k AGT 
- -t 1.000000000 -s 5 -d -1 -p tcp -e 40 -c 2 -a 0 -i 0 -k AGT
h -t 1.000000000 -s 5 -d -1 -p tcp -e 40 -c 2 -a 0 -i 0 -k AGT
+ -t 1.006042526 -s 5 -d -1 -p DSR -e 32 -c 2 -a 0 -i 1 -k RTR 
- -t 1.006042526 -s 5 -d -1 -p DSR -e 32 -c 2 -a 0 -i 1 -k RTR
h -t 1.006042526 -s 5 -d -1 -p DSR -e 32 -c 2 -a 0 -i 1 -k RTR
+ -t 1.006517526 -s 5 -d -1 -p DSR -e 90 -c 2 -a 0 -i 1 -k MAC 
- -t 1.006517526 -s 5 -d -1 -p DSR -e 90 -c 2 -a 0 -i 1 -k MAC
h -t 1.006517526 -s 5 -d -1 -p DSR -e 90 -c 2 -a 0 -i 1 -k MAC
r -t 1.007237900 -s 2 -d -1 -p DSR -e 32 -c 2 -a 0 -i 1 -k MAC
r -t 1.007237916 -s 4 -d -1 -p DSR -e 32 -c 2 -a 0 -i 1 -k MAC
r -t 1.007238045 -s 13 -d -1 -p DSR -e 32 -c 2 -a 0 -i 1 -k MAC
r -t 1.007238136 -s 0 -d -1 -p DSR -e 32 -c 2 -a 0 -i 1 -k MAC
r -t 1.007238217 -s 3 -d -1 -p DSR -e 32 -c 2 -a 0 -i 1 -k MAC
r -t 1.007238334 -s 6 -d -1 -p DSR -e 32 -c 2 -a 0 -i 1 -k MAC
r -t 1.007238354 -s 1 -d -1 -p DSR -e 32 -c 2 -a 0 -i 1 -k MAC
+ -t 1.057953005 -s 5 -d -1 -p DSR -e 32 -c 2 -a 0 -i 2 -k RTR 
- -t 1.057953005 -s 5 -d -1 -p DSR -e 32 -c 2 -a 0 -i 2 -k RTR
h -t 1.057953005 -s 5 -d -1 -p DSR -e 32 -c 2 -a 0 -i 2 -k RTR
+ -t 1.058048005 -s 5 -d -1 -p DSR -e 90 -c 2 -a 0 -i 2 -k MAC 
- -t 1.058048005 -s 5 -d -1 -p DSR -e 90 -c 2 -a 0 -i 2 -k MAC
h -t 1.058048005 -s 5 -d -1 -p DSR -e 90 -c 2 -a 0 -i 2 -k MAC
r -t 1.058768380 -s 2 -d -1 -p DSR -e 32 -c 2 -a 0 -i 2 -k MAC
r -t 1.058768395 -s 4 -d -1 -p DSR -e 32 -c 2 -a 0 -i 2 -k MAC
r -t 1.058768525 -s 13 -d -1 -p DSR -e 32 -c 2 -a 0 -i 2 -k MAC
r -t 1.058768615 -s 0 -d -1 -p DSR -e 32 -c 2 -a 0 -i 2 -k MAC
r -t 1.058768697 -s 3 -d -1 -p DSR -e 32 -c 2 -a 0 -i 2 -k MAC
r -t 1.058768814 -s 6 -d -1 -p DSR -e 32 -c 2 -a 0 -i 2 -k MAC
r -t 1.058768833 -s 1 -d -1 -p DSR -e 32 -c 2 -a 0 -i 2 -k MAC
+ -t 1.060173441 -s 2 -d -1 -p DSR -e 48 -c 2 -a 0 -i 2 -k RTR 
- -t 1.060173441 -s 2 -d -1 -p DSR -e 48 -c 2 -a 0 -i 2 -k RTR
h -t 1.060173441 -s 2 -d -1 -p DSR -e 48 -c 2 -a 0 -i 2 -k RTR
+ -t 1.060248441 -s 2 -d -1 -p DSR -e 106 -c 2 -a 0 -i 2 -k MAC 
- -t 1.060248441 -s 2 -d -1 -p DSR -e 106 -c 2 -a 0 -i 2 -k MAC
h -t 1.060248441 -s 2 -d -1 -p DSR -e 106 -c 2 -a 0 -i 2 -k MAC
+ -t 1.060644246 -s 13 -d -1 -p DSR -e 48 -c 2 -a 0 -i 2 -k RTR 
- -t 1.060644246 -s 13 -d -1 -p DSR -e 48 -c 2 -a 0 -i 2 -k RTR
h -t 1.060644246 -s 13 -d -1 -p DSR -e 48 -c 2 -a 0 -i 2 -k RTR
+ -t 1.060914603 -s 3 -d -1 -p DSR -e 48 -c 2 -a 0 -i 2 -k RTR 
- -t 1.060914603 -s 3 -d -1 -p DSR -e 48 -c 2 -a 0 -i 2 -k RTR
h -t 1.060914603 -s 3 -d -1 -p DSR -e 48 -c 2 -a 0 -i 2 -k RTR
r -t 1.061096803 -s 0 -d -1 -p DSR -e 48 -c 2 -a 0 -i 2 -k MAC
r -t 1.061096805 -s 4 -d -1 -p DSR -e 48 -c 2 -a 0 -i 2 -k MAC
r -t 1.061096815 -s 5 -d -1 -p DSR -e 48 -c 2 -a 0 -i 2 -k MAC
r -t 1.061096875 -s 3 -d -1 -p DSR -e 48 -c 2 -a 0 -i 2 -k MAC
r -t 1.061096902 -s 1 -d -1 -p DSR -e 48 -c 2 -a 0 -i 2 -k MAC
r -t 1.061097169 -s 6 -d -1 -p DSR -e 48 -c 2 -a 0 -i 2 -k MAC
r -t 1.061097192 -s 7 -d -1 -p DSR -e 48 -c 2 -a 0 -i 2 -k MAC
r -t 1.061097196 -s 13 -d -1 -p DSR -e 48 -c 2 -a 0 -i 2 -k MAC
+ -t 1.061187196 -s 13 -d -1 -p DSR -e 106 -c 2 -a 0 -i 2 -k MAC 
- -t 1.061187196 -s 13 -d -1 -p DSR -e 106 -c 2 -a 0 -i 2 -k MAC
h -t 1.061187196 -s 13 -d -1 -p DSR -e 106 -c 2 -a 0 -i 2 -k MAC
r -t 1.062035543 -s 15 -d -1 -p DSR -e 48 -c 2 -a 0 -i 2 -k MAC
r -t 1.062035649 -s 4 -d -1 -p DSR -e 48 -c 2 -a 0 -i 2 -k MAC
r -t 1.062035688 -s 12 -d -1 -p DSR -e 48 -c 2 -a 0 -i 2 -k MAC
r -t 1.062035715 -s 5 -d -1 -p DSR -e 48 -c 2 -a 0 -i 2 -k MAC
r -t 1.062035819 -s 6 -d -1 -p DSR -e 48 -c 2 -a 0 -i 2 -k MAC
r -t 1.062035952 -s 2 -d -1 -p DSR -e 48 -c 2 -a 0 -i 2 -k MAC
r -t 1.062035991 -s 3 -d -1 -p DSR -e 48 -c 2 -a 0 -i 2 -k MAC
+ -t 1.062565991 -s 3 -d -1 -p DSR -e 106 -c 2 -a 0 -i 2 -k MAC 
- -t 1.062565991 -s 3 -d -1 -p DSR -e 106 -c 2 -a 0 -i 2 -k MAC
h -t 1.062565991 -s 3 -d -1 -p DSR -e 106 -c 2 -a 0 -i 2 -k MAC
+ -t 1.062917626 -s 15 -d -1 -p DSR -e 68 -c 2 -a 0 -i 2 -k RTR 
- -t 1.062917626 -s 15 -d -1 -p DSR -e 68 -c 2 -a 0 -i 2 -k RTR
h -t 1.062917626 -s 15 -d -1 -p DSR -e 68 -c 2 -a 0 -i 2 -k RTR
+ -t 1.062977391 -s 12 -d -1 -p DSR -e 68 -c 2 -a 0 -i 2 -k RTR 
- -t 1.062977391 -s 12 -d -1 -p DSR -e 68 -c 2 -a 0 -i 2 -k RTR
h -t 1.062977391 -s 12 -d -1 -p DSR -e 68 -c 2 -a 0 -i 2 -k RTR
r -t 1.063414335 -s 7 -d -1 -p DSR -e 48 -c 2 -a 0 -i 2 -k MAC
r -t 1.063414351 -s 1 -d -1 -p DSR -e 48 -c 2 -a 0 -i 2 -k MAC
r -t 1.063414357 -s 4 -d -1 -p DSR -e 48 -c 2 -a 0 -i 2 -k MAC
r -t 1.063414399 -s 6 -d -1 -p DSR -e 48 -c 2 -a 0 -i 2 -k MAC
r -t 1.063414426 -s 2 -d -1 -p DSR -e 48 -c 2 -a 0 -i 2 -k MAC
r -t 1.063414612 -s 8 -d -1 -p DSR -e 48 -c 2 -a 0 -i 2 -k MAC
r -t 1.063414620 -s 9 -d -1 -p DSR -e 48 -c 2 -a 0 -i 2 -k MAC
r -t 1.063414683 -s 5 -d -1 -p DSR -e 48 -c 2 -a 0 -i 2 -k MAC
r -t 1.063414717 -s 0 -d -1 -p DSR -e 48 -c 2 -a 0 -i 2 -k MAC
r -t 1.063414724 -s 10 -d -1 -p DSR -e 48 -c 2 -a 0 -i 2 -k MAC
r -t 1.063414756 -s 11 -d -1 -p DSR -e 48 -c 2 -a 0 -i 2 -k MAC
r -t 1.063414768 -s 12 -d -1 -p DSR -e 48 -c 2 -a 0 -i 2 -k MAC
r -t 1.063414786 -s 13 -d -1 -p DSR -e 48 -c 2 -a 0 -i 2 -k MAC
+ -t 1.063635505 -s 4 -d -1 -p DSR -e 48 -c 2 -a 0 -i 2 -k RTR 
- -t 1.063635505 -s 4 -d -1 -p DSR -e 48 -c 2 -a 0 -i 2 -k RTR
h -t 1.063635505 -s 4 -d -1 -p DSR -e 48 -c 2 -a 0 -i 2 -k RTR
+ -t 1.063672159 -s 7 -d -1 -p DSR -e 68 -c 2 -a 0 -i 2 -k RTR 
- -t 1.063672159 -s 7 -d -1 -p DSR -e 68 -c 2 -a 0 -i 2 -k RTR
h -t 1.063672159 -s 7 -d -1 -p DSR -e 68 -c 2 -a 0 -i 2 -k RTR
+ -t 1.063704768 -s 12 -d -1 -p DSR -e 126 -c 2 -a 0 -i 2 -k MAC 
- -t 1.063704768 -s 12 -d -1 -p DSR -e 126 -c 2 -a 0 -i 2 -k MAC
h -t 1.063704768 -s 12 -d -1 -p DSR -e 126 -c 2 -a 0 -i 2 -k MAC
r -t 1.064713111 -s 15 -d -1 -p DSR -e 68 -c 2 -a 0 -i 2 -k MAC
r -t 1.064713164 -s 6 -d -1 -p DSR -e 68 -c 2 -a 0 -i 2 -k MAC
r -t 1.064713187 -s 14 -d -1 -p DSR -e 68 -c 2 -a 0 -i 2 -k MAC
r -t 1.064713260 -s 13 -d -1 -p DSR -e 68 -c 2 -a 0 -i 2 -k MAC
r -t 1.064713285 -s 11 -d -1 -p DSR -e 68 -c 2 -a 0 -i 2 -k MAC
r -t 1.064713391 -s 4 -d -1 -p DSR -e 68 -c 2 -a 0 -i 2 -k MAC
r -t 1.064713546 -s 3 -d -1 -p DSR -e 68 -c 2 -a 0 -i 2 -k MAC
r -t 1.064713559 -s 10 -d -1 -p DSR -e 68 -c 2 -a 0 -i 2 -k MAC
+ -t 1.064783391 -s 4 -d -1 -p DSR -e 106 -c 2 -a 0 -i 2 -k MAC 
- -t 1.064783391 -s 4 -d -1 -p DSR -e 106 -c 2 -a 0 -i 2 -k MAC
h -t 1.064783391 -s 4 -d -1 -p DSR -e 106 -c 2 -a 0 -i 2 -k MAC
r -t 1.065631755 -s 2 -d -1 -p DSR -e 48 -c 2 -a 0 -i 2 -k MAC
r -t 1.065631757 -s 3 -d -1 -p DSR -e 48 -c 2 -a 0 -i 2 -k MAC
r -t 1.065631781 -s 5 -d -1 -p DSR -e 48 -c 2 -a 0 -i 2 -k MAC
r -t 1.065631816 -s 6 -d -1 -p DSR -e 48 -c 2 -a 0 -i 2 -k MAC
r -t 1.065631844 -s 13 -d -1 -p DSR -e 48 -c 2 -a 0 -i 2 -k MAC
r -t 1.065632014 -s 12 -d -1 -p DSR -e 48 -c 2 -a 0 -i 2 -k MAC
r -t 1.065632031 -s 1 -d -1 -p DSR -e 48 -c 2 -a 0 -i 2 -k MAC
r -t 1.065632087 -s 7 -d -1 -p DSR -e 48 -c 2 -a 0 -i 2 -k MAC
r -t 1.065632107 -s 15 -d -1 -p DSR -e 48 -c 2 -a 0 -i 2 -k MAC
r -t 1.065632117 -s 0 -d -1 -p DSR -e 48 -c 2 -a 0 -i 2 -k MAC
+ -t 1.065660529 -s 10 -d -1 -p DSR -e 68 -c 2 -a 0 -i 2 -k RTR 
- -t 1.065660529 -s 10 -d -1 -p DSR -e 68 -c 2 -a 0 -i 2 -k RTR
h -t 1.065660529 -s 10 -d -1 -p DSR -e 68 -c 2 -a 0 -i 2 -k RTR
+ -t 1.065862107 -s 15 -d -1 -p DSR -e 126 -c 2 -a 0 -i 2 -k MAC 
- -t 1.065862107 -s 15 -d -1 -p DSR -e 126 -c 2 -a 0 -i 2 -k MAC
h -t 1.065862107 -s 15 -d -1 -p DSR -e 126 -c 2 -a 0 -i 2 -k MAC
+ -t 1.066380957 -s 6 -d -1 -p DSR -e 48 -c 2 -a 0 -i 2 -k RTR 
- -t 1.066380957 -s 6 -d -1 -p DSR -e 48 -c 2 -a 0 -i 2 -k RTR
h -t 1.066380957 -s 6 -d -1 -p DSR -e 48 -c 2 -a 0 -i 2 -k RTR
+ -t 1.066539263 -s 0 -d -1 -p DSR -e 48 -c 2 -a 0 -i 2 -k RTR 
- -t 1.066539263 -s 0 -d -1 -p DSR -e 48 -c 2 -a 0 -i 2 -k RTR
h -t 1.066539263 -s 0 -d -1 -p DSR -e 48 -c 2 -a 0 -i 2 -k RTR
r -t 1.066870450 -s 12 -d -1 -p DSR -e 68 -c 2 -a 0 -i 2 -k MAC
r -t 1.066870454 -s 13 -d -1 -p DSR -e 68 -c 2 -a 0 -i 2 -k MAC
r -t 1.066870786 -s 6 -d -1 -p DSR -e 68 -c 2 -a 0 -i 2 -k MAC
r -t 1.066870796 -s 14 -d -1 -p DSR -e 68 -c 2 -a 0 -i 2 -k MAC
r -t 1.066870823 -s 4 -d -1 -p DSR -e 68 -c 2 -a 0 -i 2 -k MAC
+ -t 1.066920786 -s 6 -d -1 -p DSR -e 106 -c 2 -a 0 -i 2 -k MAC 
- -t 1.066920786 -s 6 -d -1 -p DSR -e 106 -c 2 -a 0 -i 2 -k MAC
h -t 1.066920786 -s 6 -d -1 -p DSR -e 106 -c 2 -a 0 -i 2 -k MAC
+ -t 1.067382729 -s 1 -d -1 -p DSR -e 48 -c 2 -a 0 -i 2 -k RTR 
- -t 1.067382729 -s 1 -d -1 -p DSR -e 48 -c 2 -a 0 -i 2 -k RTR
h -t 1.067382729 -s 1 -d -1 -p DSR -e 48 -c 2 -a 0 -i 2 -k RTR
r -t 1.067769181 -s 12 -d -1 -p DSR -e 48 -c 2 -a 0 -i 2 -k MAC
r -t 1.067769193 -s 3 -d -1 -p DSR -e 48 -c 2 -a 0 -i 2 -k MAC
r -t 1.067769210 -s 4 -d -1 -p DSR -e 48 -c 2 -a 0 -i 2 -k MAC
r -t 1.067769216 -s 11 -d -1 -p DSR -e 48 -c 2 -a 0 -i 2 -k MAC
r -t 1.067769322 -s 7 -d -1 -p DSR -e 48 -c 2 -a 0 -i 2 -k MAC
r -t 1.067769341 -s 10 -d -1 -p DSR -e 48 -c 2 -a 0 -i 2 -k MAC
r -t 1.067769398 -s 14 -d -1 -p DSR -e 48 -c 2 -a 0 -i 2 -k MAC
r -t 1.067769408 -s 13 -d -1 -p DSR -e 48 -c 2 -a 0 -i 2 -k MAC
r -t 1.067769448 -s 9 -d -1 -p DSR -e 48 -c 2 -a 0 -i 2 -k MAC
r -t 1.067769464 -s 15 -d -1 -p DSR -e 48 -c 2 -a 0 -i 2 -k MAC
r -t 1.067769514 -s 2 -d -1 -p DSR -e 48 -c 2 -a 0 -i 2 -k MAC
r -t 1.067769551 -s 1 -d -1 -p DSR -e 48 -c 2 -a 0 -i 2 -k MAC
r -t 1.067769594 -s 5 -d -1 -p DSR -e 48 -c 2 -a 0 -i 2 -k MAC
r -t 1.067769616 -s 8 -d -1 -p DSR -e 48 -c 2 -a 0 -i 2 -k MAC
+ -t 1.067819551 -s 1 -d -1 -p DSR -e 106 -c 2 -a 0 -i 2 -k MAC 
- -t 1.067819551 -s 1 -d -1 -p DSR -e 106 -c 2 -a 0 -i 2 -k MAC
h -t 1.067819551 -s 1 -d -1 -p DSR -e 106 -c 2 -a 0 -i 2 -k MAC
+ -t 1.067983905 -s 14 -d -1 -p DSR -e 92 -c 2 -a 0 -i 2 -k RTR 
- -t 1.067983905 -s 14 -d -1 -p DSR -e 92 -c 2 -a 0 -i 2 -k RTR
h -t 1.067983905 -s 14 -d -1 -p DSR -e 92 -c 2 -a 0 -i 2 -k RTR
+ -t 1.068013619 -s 11 -d -1 -p DSR -e 68 -c 2 -a 0 -i 2 -k RTR 
- -t 1.068013619 -s 11 -d -1 -p DSR -e 68 -c 2 -a 0 -i 2 -k RTR
h -t 1.068013619 -s 11 -d -1 -p DSR -e 68 -c 2 -a 0 -i 2 -k RTR
+ -t 1.068061122 -s 9 -d 3 -p DSR -e 52 -c 2 -a 0 -i 3 -k RTR 
- -t 1.068061122 -s 9 -d 3 -p DSR -e 52 -c 2 -a 0 -i 3 -k RTR
h -t 1.068061122 -s 9 -d 3 -p DSR -e 52 -c 2 -a 0 -i 3 -k RTR
r -t 1.068667912 -s 3 -d -1 -p DSR -e 48 -c 2 -a 0 -i 2 -k MAC
r -t 1.068668001 -s 7 -d -1 -p DSR -e 48 -c 2 -a 0 -i 2 -k MAC
r -t 1.068668012 -s 2 -d -1 -p DSR -e 48 -c 2 -a 0 -i 2 -k MAC
r -t 1.068668104 -s 0 -d -1 -p DSR -e 48 -c 2 -a 0 -i 2 -k MAC
r -t 1.068668119 -s 8 -d -1 -p DSR -e 48 -c 2 -a 0 -i 2 -k MAC
r -t 1.068668191 -s 4 -d -1 -p DSR -e 48 -c 2 -a 0 -i 2 -k MAC
r -t 1.068668299 -s 9 -d -1 -p DSR -e 48 -c 2 -a 0 -i 2 -k MAC
r -t 1.068668316 -s 6 -d -1 -p DSR -e 48 -c 2 -a 0 -i 2 -k MAC
r -t 1.068668379 -s 5 -d -1 -p DSR -e 48 -c 2 -a 0 -i 2 -k MAC
+ -t 1.068818001 -s 7 -d -1 -p DSR -e 126 -c 2 -a 0 -i 2 -k MAC 
- -t 1.068818001 -s 7 -d -1 -p DSR -e 126 -c 2 -a 0 -i 2 -k MAC
h -t 1.068818001 -s 7 -d -1 -p DSR -e 126 -c 2 -a 0 -i 2 -k MAC
+ -t 1.069474724 -s 9 -d 6 -p DSR -e 52 -c 2 -a 0 -i 4 -k RTR 
- -t 1.069474724 -s 9 -d 6 -p DSR -e 52 -c 2 -a 0 -i 4 -k RTR
h -t 1.069474724 -s 9 -d 6 -p DSR -e 52 -c 2 -a 0 -i 4 -k RTR
r -t 1.069826304 -s 8 -d -1 -p DSR -e 68 -c 2 -a 0 -i 2 -k MAC
r -t 1.069826311 -s 9 -d -1 -p DSR -e 68 -c 2 -a 0 -i 2 -k MAC
r -t 1.069826345 -s 3 -d -1 -p DSR -e 68 -c 2 -a 0 -i 2 -k MAC
r -t 1.069826452 -s 1 -d -1 -p DSR -e 68 -c 2 -a 0 -i 2 -k MAC
r -t 1.069826532 -s 10 -d -1 -p DSR -e 68 -c 2 -a 0 -i 2 -k MAC
r -t 1.069826538 -s 6 -d -1 -p DSR -e 68 -c 2 -a 0 -i 2 -k MAC
r -t 1.069826697 -s 4 -d -1 -p DSR -e 68 -c 2 -a 0 -i 2 -k MAC
r -t 1.069826701 -s 11 -d -1 -p DSR -e 68 -c 2 -a 0 -i 2 -k MAC
r -t 1.069826753 -s 2 -d -1 -p DSR -e 68 -c 2 -a 0 -i 2 -k MAC
+ -t 1.069963893 -s 8 -d -1 -p DSR -e 68 -c 2 -a 0 -i 2 -k RTR 
- -t 1.069963893 -s 8 -d -1 -p DSR -e 68 -c 2 -a 0 -i 2 -k RTR
h -t 1.069963893 -s 8 -d -1 -p DSR -e 68 -c 2 -a 0 -i 2 -k RTR
+ -t 1.070016701 -s 11 -d -1 -p DSR -e 126 -c 2 -a 0 -i 2 -k MAC 
- -t 1.070016701 -s 11 -d -1 -p DSR -e 126 -c 2 -a 0 -i 2 -k MAC
h -t 1.070016701 -s 11 -d -1 -p DSR -e 126 -c 2 -a 0 -i 2 -k MAC
r -t 1.071025013 -s 10 -d -1 -p DSR -e 68 -c 2 -a 0 -i 2 -k MAC
r -t 1.071025057 -s 14 -d -1 -p DSR -e 68 -c 2 -a 0 -i 2 -k MAC
r -t 1.071025131 -s 6 -d -1 -p DSR -e 68 -c 2 -a 0 -i 2 -k MAC
r -t 1.071025217 -s 12 -d -1 -p DSR -e 68 -c 2 -a 0 -i 2 -k MAC
r -t 1.071025317 -s 9 -d -1 -p DSR -e 68 -c 2 -a 0 -i 2 -k MAC
r -t 1.071025400 -s 7 -d -1 -p DSR -e 68 -c 2 -a 0 -i 2 -k MAC
r -t 1.071025466 -s 3 -d -1 -p DSR -e 68 -c 2 -a 0 -i 2 -k MAC
+ -t 1.071115013 -s 10 -d -1 -p DSR -e 126 -c 2 -a 0 -i 2 -k MAC 
- -t 1.071115013 -s 10 -d -1 -p DSR -e 126 -c 2 -a 0 -i 2 -k MAC
h -t 1.071115013 -s 10 -d -1 -p DSR -e 126 -c 2 -a 0 -i 2 -k MAC
r -t 1.072123324 -s 11 -d -1 -p DSR -e 68 -c 2 -a 0 -i 2 -k MAC
r -t 1.072123351 -s 9 -d -1 -p DSR -e 68 -c 2 -a 0 -i 2 -k MAC
r -t 1.072123543 -s 7 -d -1 -p DSR -e 68 -c 2 -a 0 -i 2 -k MAC
r -t 1.072123568 -s 6 -d -1 -p DSR -e 68 -c 2 -a 0 -i 2 -k MAC
r -t 1.072123667 -s 8 -d -1 -p DSR -e 68 -c 2 -a 0 -i 2 -k MAC
r -t 1.072123673 -s 14 -d -1 -p DSR -e 68 -c 2 -a 0 -i 2 -k MAC
r -t 1.072123745 -s 3 -d -1 -p DSR -e 68 -c 2 -a 0 -i 2 -k MAC
r -t 1.072123803 -s 12 -d -1 -p DSR -e 68 -c 2 -a 0 -i 2 -k MAC
+ -t 1.072253351 -s 9 -d -1 -p ARP -e 86 -c 2 -a 0 -i 0 -k MAC 
- -t 1.072253351 -s 9 -d -1 -p ARP -e 86 -c 2 -a 0 -i 0 -k MAC
h -t 1.072253351 -s 9 -d -1 -p ARP -e 86 -c 2 -a 0 -i 0 -k MAC
r -t 1.072941660 -s 7 -d -1 -p ARP -e 28 -c 2 -a 0 -i 0 -k MAC
r -t 1.072941671 -s 8 -d -1 -p ARP -e 28 -c 2 -a 0 -i 0 -k MAC
r -t 1.072941689 -s 10 -d -1 -p ARP -e 28 -c 2 -a 0 -i 0 -k MAC
r -t 1.072941967 -s 11 -d -1 -p ARP -e 28 -c 2 -a 0 -i 0 -k MAC
r -t 1.072941980 -s 3 -d -1 -p ARP -e 28 -c 2 -a 0 -i 0 -k MAC
r -t 1.072942013 -s 6 -d -1 -p ARP -e 28 -c 2 -a 0 -i 0 -k MAC
r -t 1.072942098 -s 1 -d -1 -p ARP -e 28 -c 2 -a 0 -i 0 -k MAC
+ -t 1.073031351 -s 9 -d -1 -p ARP -e 86 -c 2 -a 0 -i 0 -k MAC 
- -t 1.073031351 -s 9 -d -1 -p ARP -e 86 -c 2 -a 0 -i 0 -k MAC
h -t 1.073031351 -s 9 -d -1 -p ARP -e 86 -c 2 -a 0 -i 0 -k MAC
+ -t 1.073237278 -s 9 -d 11 -p DSR -e 60 -c 2 -a 0 -i 7 -k RTR 
- -t 1.073237278 -s 9 -d 11 -p DSR -e 60 -c 2 -a 0 -i 7 -k RTR
h -t 1.073237278 -s 9 -d 11 -p DSR -e 60 -c 2 -a 0 -i 7 -k RTR
r -t 1.073719660 -s 7 -d -1 -p ARP -e 28 -c 2 -a 0 -i 0 -k MAC
r -t 1.073719671 -s 8 -d -1 -p ARP -e 28 -c 2 -a 0 -i 0 -k MAC
r -t 1.073719689 -s 10 -d -1 -p ARP -e 28 -c 2 -a 0 -i 0 -k MAC
r -t 1.073719967 -s 11 -d -1 -p ARP -e 28 -c 2 -a 0 -i 0 -k MAC
r -t 1.073719980 -s 3 -d -1 -p ARP -e 28 -c 2 -a 0 -i 0 -k MAC
r -t 1.073720013 -s 6 -d -1 -p ARP -e 28 -c 2 -a 0 -i 0 -k MAC
r -t 1.073720098 -s 1 -d -1 -p ARP -e 28 -c 2 -a 0 -i 0 -k MAC
+ -t 1.073809351 -s 9 -d -1 -p ARP -e 86 -c 2 -a 0 -i 0 -k MAC 
- -t 1.073809351 -s 9 -d -1 -p ARP -e 86 -c 2 -a 0 -i 0 -k MAC
h -t 1.073809351 -s 9 -d -1 -p ARP -e 86 -c 2 -a 0 -i 0 -k MAC
+ -t 1.074211100 -s 9 -d 1 -p DSR -e 52 -c 2 -a 0 -i 5 -k RTR 
- -t 1.074211100 -s 9 -d 1 -p DSR -e 52 -c 2 -a 0 -i 5 -k RTR
h -t 1.074211100 -s 9 -d 1 -p DSR -e 52 -c 2 -a 0 -i 5 -k RTR
r -t 1.074497660 -s 7 -d -1 -p ARP -e 28 -c 2 -a 0 -i 0 -k MAC
r -t 1.074497671 -s 8 -d -1 -p ARP -e 28 -c 2 -a 0 -i 0 -k MAC
r -t 1.074497689 -s 10 -d -1 -p ARP -e 28 -c 2 -a 0 -i 0 -k MAC
r -t 1.074497967 -s 11 -d -1 -p ARP -e 28 -c 2 -a 0 -i 0 -k MAC
r -t 1.074497980 -s 3 -d -1 -p ARP -e 28 -c 2 -a 0 -i 0 -k MAC
r -t 1.074498013 -s 6 -d -1 -p ARP -e 28 -c 2 -a 0 -i 0 -k MAC
r -t 1.074498098 -s 1 -d -1 -p ARP -e 28 -c 2 -a 0 -i 0 -k MAC
+ -t 1.074588013 -s 6 -d -1 -p RTS -e 44 -c 2 -a 0 -i 0 -k MAC 
- -t 1.074588013 -s 6 -d -1 -p RTS -e 44 -c 2 -a 0 -i 0 -k MAC
h -t 1.074588013 -s 6 -d -1 -p RTS -e 44 -c 2 -a 0 -i 0 -k MAC
r -t 1.074940675 -s 9 -d -1 -p RTS -e 44 -c 2 -a 0 -i 0 -k MAC
+ -t 1.074950675 -s 9 -d -1 -p CTS -e 38 -c 2 -a 0 -i 0 -k MAC 
- -t 1.074950675 -s 9 -d -1 -p CTS -e 38 -c 2 -a 0 -i 0 -k MAC
h -t 1.074950675 -s 9 -d -1 -p CTS -e 38 -c 2 -a 0 -i 0 -k MAC
r -t 1.075255338 -s 6 -d -1 -p CTS -e 38 -c 2 -a 0 -i 0 -k MAC
+ -t 1.075265338 -s 6 -d -1 -p ARP -e 86 -c 2 -a 0 -i 0 -k MAC 
- -t 1.075265338 -s 6 -d -1 -p ARP -e 86 -c 2 -a 0 -i 0 -k MAC
h -t 1.075265338 -s 6 -d -1 -p ARP -e 86 -c 2 -a 0 -i 0 -k MAC
r -t 1.075954000 -s 9 -d -1 -p ARP -e 28 -c 2 -a 0 -i 0 -k MAC
+ -t 1.075964000 -s 9 -d -1 -p ACK -e 38 -c 2 -a 0 -i 0 -k MAC 
- -t 1.075964000 -s 9 -d -1 -p ACK -e 38 -c 2 -a 0 -i 0 -k MAC
h -t 1.075964000 -s 9 -d -1 -p ACK -e 38 -c 2 -a 0 -i 0 -k MAC
r -t 1.076268663 -s 6 -d -1 -p ACK -e 38 -c 2 -a 0 -i 0 -k MAC
+ -t 1.076398321 -s 8 -d -1 -p DSR -e 126 -c 2 -a 0 -i 2 -k MAC 
- -t 1.076398321 -s 8 -d -1 -p DSR -e 126 -c 2 -a 0 -i 2 -k MAC
h -t 1.076398321 -s 8 -d -1 -p DSR -e 126 -c 2 -a 0 -i 2 -k MAC
+ -t 1.076672595 -s 9 -d 10 -p DSR -e 60 -c 2 -a 0 -i 8 -k RTR 
- -t 1.076672595 -s 9 -d 10 -p DSR -e 60 -c 2 -a 0 -i 8 -k RTR
h -t 1.076672595 -s 9 -d 10 -p DSR -e 60 -c 2 -a 0 -i 8 -k RTR
r -t 1.077406623 -s 7 -d -1 -p DSR -e 68 -c 2 -a 0 -i 2 -k MAC
r -t 1.077406641 -s 9 -d -1 -p DSR -e 68 -c 2 -a 0 -i 2 -k MAC
r -t 1.077406889 -s 1 -d -1 -p DSR -e 68 -c 2 -a 0 -i 2 -k MAC
r -t 1.077406941 -s 3 -d -1 -p DSR -e 68 -c 2 -a 0 -i 2 -k MAC
r -t 1.077406975 -s 10 -d -1 -p DSR -e 68 -c 2 -a 0 -i 2 -k MAC
r -t 1.077407151 -s 6 -d -1 -p DSR -e 68 -c 2 -a 0 -i 2 -k MAC
+ -t 1.077756941 -s 3 -d -1 -p RTS -e 44 -c 2 -a 0 -i 0 -k MAC 
- -t 1.077756941 -s 3 -d -1 -p RTS -e 44 -c 2 -a 0 -i 0 -k MAC
h -t 1.077756941 -s 3 -d -1 -p RTS -e 44 -c 2 -a 0 -i 0 -k MAC
r -t 1.078109570 -s 9 -d -1 -p RTS -e 44 -c 2 -a 0 -i 0 -k MAC
+ -t 1.078119570 -s 9 -d -1 -p CTS -e 38 -c 2 -a 0 -i 0 -k MAC 
- -t 1.078119570 -s 9 -d -1 -p CTS -e 38 -c 2 -a 0 -i 0 -k MAC
h -t 1.078119570 -s 9 -d -1 -p CTS -e 38 -c 2 -a 0 -i 0 -k MAC
r -t 1.078424199 -s 3 -d -1 -p CTS -e 38 -c 2 -a 0 -i 0 -k MAC
+ -t 1.078434199 -s 3 -d -1 -p ARP -e 86 -c 2 -a 0 -i 0 -k MAC 
- -t 1.078434199 -s 3 -d -1 -p ARP -e 86 -c 2 -a 0 -i 0 -k MAC
h -t 1.078434199 -s 3 -d -1 -p ARP -e 86 -c 2 -a 0 -i 0 -k MAC
+ -t 1.078837230 -s 9 -d 7 -p DSR -e 60 -c 2 -a 0 -i 6 -k RTR 
- -t 1.078837230 -s 9 -d 7 -p DSR -e 60 -c 2 -a 0 -i 6 -k RTR
h -t 1.078837230 -s 9 -d 7 -p DSR -e 60 -c 2 -a 0 -i 6 -k RTR
r -t 1.079122828 -s 9 -d -1 -p ARP -e 28 -c 2 -a 0 -i 0 -k MAC
+ -t 1.079132828 -s 9 -d -1 -p ACK -e 38 -c 2 -a 0 -i 0 -k MAC 
- -t 1.079132828 -s 9 -d -1 -p ACK -e 38 -c 2 -a 0 -i 0 -k MAC
h -t 1.079132828 -s 9 -d -1 -p ACK -e 38 -c 2 -a 0 -i 0 -k MAC
r -t 1.079437456 -s 3 -d -1 -p ACK -e 38 -c 2 -a 0 -i 0 -k MAC
+ -t 1.079586828 -s 9 -d -1 -p ARP -e 86 -c 2 -a 0 -i 0 -k MAC 
- -t 1.079586828 -s 9 -d -1 -p ARP -e 86 -c 2 -a 0 -i 0 -k MAC
h -t 1.079586828 -s 9 -d -1 -p ARP -e 86 -c 2 -a 0 -i 0 -k MAC
r -t 1.080275137 -s 7 -d -1 -p ARP -e 28 -c 2 -a 0 -i 0 -k MAC
r -t 1.080275148 -s 8 -d -1 -p ARP -e 28 -c 2 -a 0 -i 0 -k MAC
r -t 1.080275166 -s 10 -d -1 -p ARP -e 28 -c 2 -a 0 -i 0 -k MAC
r -t 1.080275444 -s 11 -d -1 -p ARP -e 28 -c 2 -a 0 -i 0 -k MAC
r -t 1.080275456 -s 3 -d -1 -p ARP -e 28 -c 2 -a 0 -i 0 -k MAC
r -t 1.080275490 -s 6 -d -1 -p ARP -e 28 -c 2 -a 0 -i 0 -k MAC
r -t 1.080275575 -s 1 -d -1 -p ARP -e 28 -c 2 -a 0 -i 0 -k MAC
+ -t 1.080510575 -s 1 -d -1 -p RTS -e 44 -c 2 -a 0 -i 0 -k MAC 
- -t 1.080510575 -s 1 -d -1 -p RTS -e 44 -c 2 -a 0 -i 0 -k MAC
h -t 1.080510575 -s 1 -d -1 -p RTS -e 44 -c 2 -a 0 -i 0 -k MAC
r -t 1.080863323 -s 9 -d -1 -p RTS -e 44 -c 2 -a 0 -i 0 -k MAC
+ -t 1.080873323 -s 9 -d -1 -p CTS -e 38 -c 2 -a 0 -i 0 -k MAC 
- -t 1.080873323 -s 9 -d -1 -p CTS -e 38 -c 2 -a 0 -i 0 -k MAC
h -t 1.080873323 -s 9 -d -1 -p CTS -e 38 -c 2 -a 0 -i 0 -k MAC
r -t 1.081178070 -s 1 -d -1 -p CTS -e 38 -c 2 -a 0 -i 0 -k MAC
+ -t 1.081188070 -s 1 -d -1 -p ARP -e 86 -c 2 -a 0 -i 0 -k MAC 
- -t 1.081188070 -s 1 -d -1 -p ARP -e 86 -c 2 -a 0 -i 0 -k MAC
h -t 1.081188070 -s 1 -d -1 -p ARP -e 86 -c 2 -a 0 -i 0 -k MAC
+ -t 1.081840246 -s 9 -d 8 -p DSR -e 60 -c 2 -a 0 -i 9 -k RTR 
- -t 1.081840246 -s 9 -d 8 -p DSR -e 60 -c 2 -a 0 -i 9 -k RTR
h -t 1.081840246 -s 9 -d 8 -p DSR -e 60 -c 2 -a 0 -i 9 -k RTR
r -t 1.081876818 -s 9 -d -1 -p ARP -e 28 -c 2 -a 0 -i 0 -k MAC
+ -t 1.081886818 -s 9 -d -1 -p ACK -e 38 -c 2 -a 0 -i 0 -k MAC 
- -t 1.081886818 -s 9 -d -1 -p ACK -e 38 -c 2 -a 0 -i 0 -k MAC
h -t 1.081886818 -s 9 -d -1 -p ACK -e 38 -c 2 -a 0 -i 0 -k MAC
r -t 1.082191566 -s 1 -d -1 -p ACK -e 38 -c 2 -a 0 -i 0 -k MAC
+ -t 1.082391152 -s 11 -d -1 -p RTS -e 44 -c 2 -a 0 -i 0 -k MAC 
- -t 1.082391152 -s 11 -d -1 -p RTS -e 44 -c 2 -a 0 -i 0 -k MAC
h -t 1.082391152 -s 11 -d -1 -p RTS -e 44 -c 2 -a 0 -i 0 -k MAC
r -t 1.082743768 -s 9 -d -1 -p RTS -e 44 -c 2 -a 0 -i 0 -k MAC
+ -t 1.082753768 -s 9 -d -1 -p CTS -e 38 -c 2 -a 0 -i 0 -k MAC 
- -t 1.082753768 -s 9 -d -1 -p CTS -e 38 -c 2 -a 0 -i 0 -k MAC
h -t 1.082753768 -s 9 -d -1 -p CTS -e 38 -c 2 -a 0 -i 0 -k MAC
r -t 1.083058384 -s 11 -d -1 -p CTS -e 38 -c 2 -a 0 -i 0 -k MAC
+ -t 1.083068384 -s 11 -d -1 -p ARP -e 86 -c 2 -a 0 -i 0 -k MAC 
- -t 1.083068384 -s 11 -d -1 -p ARP -e 86 -c 2 -a 0 -i 0 -k MAC
h -t 1.083068384 -s 11 -d -1 -p ARP -e 86 -c 2 -a 0 -i 0 -k MAC
r -t 1.083757000 -s 9 -d -1 -p ARP -e 28 -c 2 -a 0 -i 0 -k MAC
+ -t 1.083767000 -s 9 -d -1 -p ACK -e 38 -c 2 -a 0 -i 0 -k MAC 
- -t 1.083767000 -s 9 -d -1 -p ACK -e 38 -c 2 -a 0 -i 0 -k MAC
h -t 1.083767000 -s 9 -d -1 -p ACK -e 38 -c 2 -a 0 -i 0 -k MAC
r -t 1.084071616 -s 11 -d -1 -p ACK -e 38 -c 2 -a 0 -i 0 -k MAC
+ -t 1.084261000 -s 9 -d -1 -p RTS -e 44 -c 2 -a 0 -i 0 -k MAC 
- -t 1.084261000 -s 9 -d -1 -p RTS -e 44 -c 2 -a 0 -i 0 -k MAC
h -t 1.084261000 -s 9 -d -1 -p RTS -e 44 -c 2 -a 0 -i 0 -k MAC
r -t 1.084613662 -s 6 -d -1 -p RTS -e 44 -c 2 -a 0 -i 0 -k MAC
+ -t 1.084623662 -s 6 -d -1 -p CTS -e 38 -c 2 -a 0 -i 0 -k MAC 
- -t 1.084623662 -s 6 -d -1 -p CTS -e 38 -c 2 -a 0 -i 0 -k MAC
h -t 1.084623662 -s 6 -d -1 -p CTS -e 38 -c 2 -a 0 -i 0 -k MAC
r -t 1.084928324 -s 9 -d -1 -p CTS -e 38 -c 2 -a 0 -i 0 -k MAC
+ -t 1.084938324 -s 9 -d 6 -p DSR -e 110 -c 2 -a 0 -i 4 -k MAC 
- -t 1.084938324 -s 9 -d 6 -p DSR -e 110 -c 2 -a 0 -i 4 -k MAC
h -t 1.084938324 -s 9 -d 6 -p DSR -e 110 -c 2 -a 0 -i 4 -k MAC
r -t 1.085818987 -s 6 -d 6 -p DSR -e 52 -c 2 -a 0 -i 4 -k MAC
+ -t 1.085828987 -s 6 -d -1 -p ACK -e 38 -c 2 -a 0 -i 0 -k MAC 
- -t 1.085828987 -s 6 -d -1 -p ACK -e 38 -c 2 -a 0 -i 0 -k MAC
h -t 1.085828987 -s 6 -d -1 -p ACK -e 38 -c 2 -a 0 -i 0 -k MAC
+ -t 1.085843987 -s 6 -d 5 -p DSR -e 52 -c 2 -a 0 -i 4 -k RTR 
- -t 1.085843987 -s 6 -d 5 -p DSR -e 52 -c 2 -a 0 -i 4 -k RTR
h -t 1.085843987 -s 6 -d 5 -p DSR -e 52 -c 2 -a 0 -i 4 -k RTR
r -t 1.086133649 -s 9 -d -1 -p ACK -e 38 -c 2 -a 0 -i 0 -k MAC
+ -t 1.086522987 -s 6 -d -1 -p ARP -e 86 -c 2 -a 0 -i 0 -k MAC 
- -t 1.086522987 -s 6 -d -1 -p ARP -e 86 -c 2 -a 0 -i 0 -k MAC
h -t 1.086522987 -s 6 -d -1 -p ARP -e 86 -c 2 -a 0 -i 0 -k MAC
r -t 1.087211382 -s 12 -d -1 -p ARP -e 28 -c 2 -a 0 -i 0 -k MAC
r -t 1.087211394 -s 3 -d -1 -p ARP -e 28 -c 2 -a 0 -i 0 -k MAC
r -t 1.087211411 -s 4 -d -1 -p ARP -e 28 -c 2 -a 0 -i 0 -k MAC
r -t 1.087211417 -s 11 -d -1 -p ARP -e 28 -c 2 -a 0 -i 0 -k MAC
r -t 1.087211523 -s 7 -d -1 -p ARP -e 28 -c 2 -a 0 -i 0 -k MAC
r -t 1.087211542 -s 10 -d -1 -p ARP -e 28 -c 2 -a 0 -i 0 -k MAC
r -t 1.087211599 -s 14 -d -1 -p ARP -e 28 -c 2 -a 0 -i 0 -k MAC
r -t 1.087211609 -s 13 -d -1 -p ARP -e 28 -c 2 -a 0 -i 0 -k MAC
r -t 1.087211649 -s 9 -d -1 -p ARP -e 28 -c 2 -a 0 -i 0 -k MAC
r -t 1.087211665 -s 15 -d -1 -p ARP -e 28 -c 2 -a 0 -i 0 -k MAC
r -t 1.087211715 -s 2 -d -1 -p ARP -e 28 -c 2 -a 0 -i 0 -k MAC
r -t 1.087211752 -s 1 -d -1 -p ARP -e 28 -c 2 -a 0 -i 0 -k MAC
r -t 1.087211795 -s 5 -d -1 -p ARP -e 28 -c 2 -a 0 -i 0 -k MAC
r -t 1.087211817 -s 8 -d -1 -p ARP -e 28 -c 2 -a 0 -i 0 -k MAC
+ -t 1.087461599 -s 14 -d -1 -p DSR -e 150 -c 2 -a 0 -i 2 -k MAC 
- -t 1.087461599 -s 14 -d -1 -p DSR -e 150 -c 2 -a 0 -i 2 -k MAC
h -t 1.087461599 -s 14 -d -1 -p DSR -e 150 -c 2 -a 0 -i 2 -k MAC
r -t 1.088661955 -s 11 -d -1 -p DSR -e 92 -c 2 -a 0 -i 2 -k MAC
r -t 1.088662018 -s 12 -d -1 -p DSR -e 92 -c 2 -a 0 -i 2 -k MAC
r -t 1.088662212 -s 6 -d -1 -p DSR -e 92 -c 2 -a 0 -i 2 -k MAC
r -t 1.088662259 -s 10 -d -1 -p DSR -e 92 -c 2 -a 0 -i 2 -k MAC
r -t 1.088662288 -s 15 -d -1 -p DSR -e 92 -c 2 -a 0 -i 2 -k MAC
+ -t 1.089116571 -s 9 -d -1 -p RTS -e 44 -c 2 -a 0 -i 0 -k MAC 
- -t 1.089116571 -s 9 -d -1 -p RTS -e 44 -c 2 -a 0 -i 0 -k MAC
h -t 1.089116571 -s 9 -d -1 -p RTS -e 44 -c 2 -a 0 -i 0 -k MAC
+ -t 1.089116913 -s 5 -d -1 -p RTS -e 44 -c 2 -a 0 -i 0 -k MAC 
- -t 1.089116913 -s 5 -d -1 -p RTS -e 44 -c 2 -a 0 -i 0 -k MAC
h -t 1.089116913 -s 5 -d -1 -p RTS -e 44 -c 2 -a 0 -i 0 -k MAC
d -t 1.089117606 -s 3 -d -1 -p RTS -e 44 -c 2 -a 0 -i 0 -k MAC
d -t 1.089469721 -s 6 -d -1 -p RTS -e 44 -c 2 -a 0 -i 0 -k MAC
+ -t 1.090144226 -s 9 -d -1 -p RTS -e 44 -c 2 -a 0 -i 0 -k MAC 
- -t 1.090144226 -s 9 -d -1 -p RTS -e 44 -c 2 -a 0 -i 0 -k MAC
h -t 1.090144226 -s 9 -d -1 -p RTS -e 44 -c 2 -a 0 -i 0 -k MAC
r -t 1.090496854 -s 3 -d -1 -p RTS -e 44 -c 2 -a 0 -i 0 -k MAC
+ -t 1.090506854 -s 3 -d -1 -p CTS -e 38 -c 2 -a 0 -i 0 -k MAC 
- -t 1.090506854 -s 3 -d -1 -p CTS -e 38 -c 2 -a 0 -i 0 -k MAC
h -t 1.090506854 -s 3 -d -1 -p CTS -e 38 -c 2 -a 0 -i 0 -k MAC
r -t 1.090811483 -s 9 -d -1 -p CTS -e 38 -c 2 -a 0 -i 0 -k MAC
+ -t 1.090821483 -s 9 -d 3 -p DSR -e 110 -c 2 -a 0 -i 3 -k MAC 
- -t 1.090821483 -s 9 -d 3 -p DSR -e 110 -c 2 -a 0 -i 3 -k MAC
h -t 1.090821483 -s 9 -d 3 -p DSR -e 110 -c 2 -a 0 -i 3 -k MAC
r -t 1.091702111 -s 3 -d 3 -p DSR -e 52 -c 2 -a 0 -i 3 -k MAC
+ -t 1.091712111 -s 3 -d -1 -p ACK -e 38 -c 2 -a 0 -i 0 -k MAC 
- -t 1.091712111 -s 3 -d -1 -p ACK -e 38 -c 2 -a 0 -i 0 -k MAC
h -t 1.091712111 -s 3 -d -1 -p ACK -e 38 -c 2 -a 0 -i 0 -k MAC
+ -t 1.091727111 -s 3 -d 5 -p DSR -e 52 -c 2 -a 0 -i 3 -k RTR 
- -t 1.091727111 -s 3 -d 5 -p DSR -e 52 -c 2 -a 0 -i 3 -k RTR
h -t 1.091727111 -s 3 -d 5 -p DSR -e 52 -c 2 -a 0 -i 3 -k RTR
r -t 1.092016739 -s 9 -d -1 -p ACK -e 38 -c 2 -a 0 -i 0 -k MAC
+ -t 1.092266111 -s 3 -d -1 -p ARP -e 86 -c 2 -a 0 -i 0 -k MAC 
- -t 1.092266111 -s 3 -d -1 -p ARP -e 86 -c 2 -a 0 -i 0 -k MAC
h -t 1.092266111 -s 3 -d -1 -p ARP -e 86 -c 2 -a 0 -i 0 -k MAC
r -t 1.092954454 -s 7 -d -1 -p ARP -e 28 -c 2 -a 0 -i 0 -k MAC
r -t 1.092954472 -s 1 -d -1 -p ARP -e 28 -c 2 -a 0 -i 0 -k MAC
r -t 1.092954477 -s 4 -d -1 -p ARP -e 28 -c 2 -a 0 -i 0 -k MAC
r -t 1.092954518 -s 6 -d -1 -p ARP -e 28 -c 2 -a 0 -i 0 -k MAC
r -t 1.092954547 -s 2 -d -1 -p ARP -e 28 -c 2 -a 0 -i 0 -k MAC
r -t 1.092954731 -s 8 -d -1 -p ARP -e 28 -c 2 -a 0 -i 0 -k MAC
r -t 1.092954739 -s 9 -d -1 -p ARP -e 28 -c 2 -a 0 -i 0 -k MAC
r -t 1.092954804 -s 5 -d -1 -p ARP -e 28 -c 2 -a 0 -i 0 -k MAC
r -t 1.092954838 -s 0 -d -1 -p ARP -e 28 -c 2 -a 0 -i 0 -k MAC
r -t 1.092954843 -s 10 -d -1 -p ARP -e 28 -c 2 -a 0 -i 0 -k MAC
r -t 1.092954875 -s 11 -d -1 -p ARP -e 28 -c 2 -a 0 -i 0 -k MAC
r -t 1.092954888 -s 12 -d -1 -p ARP -e 28 -c 2 -a 0 -i 0 -k MAC
r -t 1.092954906 -s 13 -d -1 -p ARP -e 28 -c 2 -a 0 -i 0 -k MAC
+ -t 1.093244838 -s 0 -d -1 -p DSR -e 106 -c 2 -a 0 -i 2 -k MAC 
- -t 1.093244838 -s 0 -d -1 -p DSR -e 106 -c 2 -a 0 -i 2 -k MAC
h -t 1.093244838 -s 0 -d -1 -p DSR -e 106 -c 2 -a 0 -i 2 -k MAC
r -t 1.094093200 -s 2 -d -1 -p DSR -e 48 -c 2 -a 0 -i 2 -k MAC
r -t 1.094093391 -s 1 -d -1 -p DSR -e 48 -c 2 -a 0 -i 2 -k MAC
r -t 1.094093448 -s 5 -d -1 -p DSR -e 48 -c 2 -a 0 -i 2 -k MAC
r -t 1.094093564 -s 4 -d -1 -p DSR -e 48 -c 2 -a 0 -i 2 -k MAC
r -t 1.094093564 -s 3 -d -1 -p DSR -e 48 -c 2 -a 0 -i 2 -k MAC
+ -t 1.094608120 -s 9 -d -1 -p RTS -e 44 -c 2 -a 0 -i 0 -k MAC 
- -t 1.094608120 -s 9 -d -1 -p RTS -e 44 -c 2 -a 0 -i 0 -k MAC
h -t 1.094608120 -s 9 -d -1 -p RTS -e 44 -c 2 -a 0 -i 0 -k MAC
r -t 1.094960867 -s 1 -d -1 -p RTS -e 44 -c 2 -a 0 -i 0 -k MAC
+ -t 1.094970867 -s 1 -d -1 -p CTS -e 38 -c 2 -a 0 -i 0 -k MAC 
- -t 1.094970867 -s 1 -d -1 -p CTS -e 38 -c 2 -a 0 -i 0 -k MAC
h -t 1.094970867 -s 1 -d -1 -p CTS -e 38 -c 2 -a 0 -i 0 -k MAC
r -t 1.095275615 -s 9 -d -1 -p CTS -e 38 -c 2 -a 0 -i 0 -k MAC
+ -t 1.095285615 -s 9 -d 1 -p DSR -e 110 -c 2 -a 0 -i 5 -k MAC 
- -t 1.095285615 -s 9 -d 1 -p DSR -e 110 -c 2 -a 0 -i 5 -k MAC
h -t 1.095285615 -s 9 -d 1 -p DSR -e 110 -c 2 -a 0 -i 5 -k MAC
r -t 1.096166362 -s 1 -d 1 -p DSR -e 52 -c 2 -a 0 -i 5 -k MAC
+ -t 1.096176362 -s 1 -d -1 -p ACK -e 38 -c 2 -a 0 -i 0 -k MAC 
- -t 1.096176362 -s 1 -d -1 -p ACK -e 38 -c 2 -a 0 -i 0 -k MAC
h -t 1.096176362 -s 1 -d -1 -p ACK -e 38 -c 2 -a 0 -i 0 -k MAC
+ -t 1.096191362 -s 1 -d 5 -p DSR -e 52 -c 2 -a 0 -i 5 -k RTR 
- -t 1.096191362 -s 1 -d 5 -p DSR -e 52 -c 2 -a 0 -i 5 -k RTR
h -t 1.096191362 -s 1 -d 5 -p DSR -e 52 -c 2 -a 0 -i 5 -k RTR
r -t 1.096481110 -s 9 -d -1 -p ACK -e 38 -c 2 -a 0 -i 0 -k MAC
+ -t 1.096600927 -s 5 -d -1 -p RTS -e 44 -c 2 -a 0 -i 0 -k MAC 
- -t 1.096600927 -s 5 -d -1 -p RTS -e 44 -c 2 -a 0 -i 0 -k MAC
h -t 1.096600927 -s 5 -d -1 -p RTS -e 44 -c 2 -a 0 -i 0 -k MAC
r -t 1.096953736 -s 6 -d -1 -p RTS -e 44 -c 2 -a 0 -i 0 -k MAC
+ -t 1.096963736 -s 6 -d -1 -p CTS -e 38 -c 2 -a 0 -i 0 -k MAC 