+ 1 0 1 tcp 40 ------- 0 0.0 4.0 0 0
- 1 0 1 tcp 40 ------- 0 0.0 4.0 0 0
+ 1 2 1 cbr 1000 ------- 0 2.0 5.0 0 1
- 1 2 1 cbr 1000 ------- 0 2.0 5.0 0 1
+ 1.008 2 1 cbr 1000 ------- 0 2.0 5.0 1 2
- 1.008 2 1 cbr 1000 ------- 0 2.0 5.0 1 2
r 1.010003 0 1 tcp 40 ------- 0 0.0 4.0 0 0
+ 1.010003 1 3 tcp 40 ------- 0 0.0 4.0 0 0
- 1.010003 1 3 tcp 40 ------- 0 0.0 4.0 0 0
r 1.01016 2 1 cbr 1000 ------- 0 2.0 5.0 0 1
+ 1.01016 1 3 cbr 1000 ------- 0 2.0 5.0 0 1
- 1.01016 1 3 cbr 1000 ------- 0 2.0 5.0 0 1
r 1.015035 1 3 tcp 40 ------- 0 0.0 4.0 0 0
+ 1.015035 3 4 tcp 40 ------- 0 0.0 4.0 0 0
- 1.015035 3 4 tcp 40 ------- 0 0.0 4.0 0 0
r 1.01596 1 3 cbr 1000 ------- 0 2.0 5.0 0 1
+ 1.01596 3 5 cbr 1000 ------- 0 2.0 5.0 0 1
- 1.01596 3 5 cbr 1000 ------- 0 2.0 5.0 0 1
+ 1.016 2 1 cbr 1000 ------- 0 2.0 5.0 2 3
- 1.016 2 1 cbr 1000 ------- 0 2.0 5.0 2 3
r 1.01816 2 1 cbr 1000 ------- 0 2.0 5.0 1 2
+ 1.01816 1 3 cbr 1000 ------- 0 2.0 5.0 1 2
- 1.01816 1 3 cbr 1000 ------- 0 2.0 5.0 1 2
r 1.01876 3 5 cbr 1000 ------- 0 2.0 5.0 0 1
r 1.02396 1 3 cbr 1000 ------- 0 2.0 5.0 1 2
+ 1.02396 3 5 cbr 1000 ------- 0 2.0 5.0 1 2
- 1.02396 3 5 cbr 1000 ------- 0 2.0 5.0 1 2
+ 1.024 2 1 cbr 1000 ------- 0 2.0 5.0 3 4
- 1.024 2 1 cbr 1000 ------- 0 2.0 5.0 3 4
r 1.025048 3 4 tcp 40 ------- 0 0.0 4.0 0 0
+ 1.025048 4 3 ack 40 ------- 0 4.0 0.0 0 5
- 1.025048 4 3 ack 40 ------- 0 4.0 0.0 0 5
r 1.02616 2 1 cbr 1000 ------- 0 2.0 5.0 2 3
+ 1.02616 1 3 cbr 1000 ------- 0 2.0 5.0 2 3
- 1.02616 1 3 cbr 1000 ------- 0 2.0 5.0 2 3
r 1.02676 3 5 cbr 1000 ------- 0 2.0 5.0 1 2
r 1.03196 1 3 cbr 1000 ------- 0 2.0 5.0 2 3
+ 1.03196 3 5 cbr 1000 ------- 0 2.0 5.0 2 3
- 1.03196 3 5 cbr 1000 ------- 0 2.0 5.0 2 3
+ 1.032 2 1 cbr 1000 ------- 0 2.0 5.0 4 6
- 1.032 2 1 cbr 1000 ------- 0 2.0 5.0 4 6
r 1.03416 2 1 cbr 1000 ------- 0 2.0 5.0 3 4
+ 1.03416 1 3 cbr 1000 ------- 0 2.0 5.0 3 4
- 1.03416 1 3 cbr 1000 ------- 0 2.0 5.0 3 4
r 1.03476 3 5 cbr 1000 ------- 0 2.0 5.0 2 3
r 1.035061 4 3 ack 40 ------- 0 4.0 0.0 0 5
+ 1.035061 3 1 ack 40 ------- 0 4.0 0.0 0 5
- 1.035061 3 1 ack 40 ------- 0 4.0 0.0 0 5
r 1.03996 1 3 cbr 1000 ------- 0 2.0 5.0 3 4
+ 1.03996 3 5 cbr 1000 ------- 0 2.0 5.0 3 4
- 1.03996 3 5 cbr 1000 ------- 0 2.0 5.0 3 4
+ 1.04 2 1 cbr 1000 ------- 0 2.0 5.0 5 7
- 1.04 2 1 cbr 1000 ------- 0 2.0 5.0 5 7
r 1.040093 3 1 ack 40 ------- 0 4.0 0.0 0 5
+ 1.040093 1 0 ack 40 ------- 0 4.0 0.0 0 5
- 1.040093 1 0 ack 40 ------- 0 4.0 0.0 0 5
r 1.04216 2 1 cbr 1000 ------- 0 2.0 5.0 4 6
+ 1.04216 1 3 cbr 1000 ------- 0 2.0 5.0 4 6
- 1.04216 1 3 cbr 1000 ------- 0 2.0 5.0 4 6
r 1.04276 3 5 cbr 1000 ------- 0 2.0 5.0 3 4
r 1.04796 1 3 cbr 1000 ------- 0 2.0 5.0 4 6
+ 1.04796 3 5 cbr 1000 ------- 0 2.0 5.0 4 6
- 1.04796 3 5 cbr 1000 ------- 0 2.0 5.0 4 6
+ 1.048 2 1 cbr 1000 ------- 0 2.0 5.0 6 8
- 1.048 2 1 cbr 1000 ------- 0 2.0 5.0 6 8
r 1.050096 1 0 ack 40 ------- 0 4.0 0.0 0 5
+ 1.050096 0 1 tcp 1540 ------- 0 0.0 4.0 1 9
- 1.050096 0 1 tcp 1540 ------- 0 0.0 4.0 1 9
+ 1.050096 0 1 tcp 1540 ------- 0 0.0 4.0 2 10
r 1.05016 2 1 cbr 1000 ------- 0 2.0 5.0 5 7
+ 1.05016 1 3 cbr 1000 ------- 0 2.0 5.0 5 7
- 1.05016 1 3 cbr 1000 ------- 0 2.0 5.0 5 7
- 1.050219 0 1 tcp 1540 ------- 0 0.0 4.0 2 10
r 1.05076 3 5 cbr 1000 ------- 0 2.0 5.0 4 6
r 1.05596 1 3 cbr 1000 ------- 0 2.0 5.0 5 7
+ 1.05596 3 5 cbr 1000 ------- 0 2.0 5.0 5 7
- 1.05596 3 5 cbr 1000 ------- 0 2.0 5.0 5 7
+ 1.056 2 1 cbr 1000 ------- 0 2.0 5.0 7 11
- 1.056 2 1 cbr 1000 ------- 0 2.0 5.0 7 11
r 1.05816 2 1 cbr 1000 ------- 0 2.0 5.0 6 8
+ 1.05816 1 3 cbr 1000 ------- 0 2.0 5.0 6 8
- 1.05816 1 3 cbr 1000 ------- 0 2.0 5.0 6 8
r 1.05876 3 5 cbr 1000 ------- 0 2.0 5.0 5 7
r 1.060219 0 1 tcp 1540 ------- 0 0.0 4.0 1 9
+ 1.060219 1 3 tcp 1540 ------- 0 0.0 4.0 1 9
- 1.060219 1 3 tcp 1540 ------- 0 0.0 4.0 1 9
r 1.060342 0 1 tcp 1540 ------- 0 0.0 4.0 2 10
+ 1.060342 1 3 tcp 1540 ------- 0 0.0 4.0 2 10
- 1.061451 1 3 tcp 1540 ------- 0 0.0 4.0 2 10
r 1.06396 1 3 cbr 1000 ------- 0 2.0 5.0 6 8
+ 1.06396 3 5 cbr 1000 ------- 0 2.0 5.0 6 8
- 1.06396 3 5 cbr 1000 ------- 0 2.0 5.0 6 8
+ 1.064 2 1 cbr 1000 ------- 0 2.0 5.0 8 12
- 1.064 2 1 cbr 1000 ------- 0 2.0 5.0 8 12
r 1.06616 2 1 cbr 1000 ------- 0 2.0 5.0 7 11
+ 1.06616 1 3 cbr 1000 ------- 0 2.0 5.0 7 11
- 1.06616 1 3 cbr 1000 ------- 0 2.0 5.0 7 11
r 1.066451 1 3 tcp 1540 ------- 0 0.0 4.0 1 9
+ 1.066451 3 4 tcp 1540 ------- 0 0.0 4.0 1 9
- 1.066451 3 4 tcp 1540 ------- 0 0.0 4.0 1 9
r 1.06676 3 5 cbr 1000 ------- 0 2.0 5.0 6 8
r 1.067683 1 3 tcp 1540 ------- 0 0.0 4.0 2 10
+ 1.067683 3 4 tcp 1540 ------- 0 0.0 4.0 2 10
- 1.067683 3 4 tcp 1540 ------- 0 0.0 4.0 2 10
r 1.07196 1 3 cbr 1000 ------- 0 2.0 5.0 7 11
+ 1.07196 3 5 cbr 1000 ------- 0 2.0 5.0 7 11
- 1.07196 3 5 cbr 1000 ------- 0 2.0 5.0 7 11
+ 1.072 2 1 cbr 1000 ------- 0 2.0 5.0 9 13
- 1.072 2 1 cbr 1000 ------- 0 2.0 5.0 9 13
r 1.07416 2 1 cbr 1000 ------- 0 2.0 5.0 8 12
+ 1.07416 1 3 cbr 1000 ------- 0 2.0 5.0 8 12
- 1.07416 1 3 cbr 1000 ------- 0 2.0 5.0 8 12
r 1.07476 3 5 cbr 1000 ------- 0 2.0 5.0 7 11
r 1.076944 3 4 tcp 1540 ------- 0 0.0 4.0 1 9
+ 1.076944 4 3 ack 40 ------- 0 4.0 0.0 1 14
- 1.076944 4 3 ack 40 ------- 0 4.0 0.0 1 14
r 1.078176 3 4 tcp 1540 ------- 0 0.0 4.0 2 10
+ 1.078176 4 3 ack 40 ------- 0 4.0 0.0 2 15
- 1.078176 4 3 ack 40 ------- 0 4.0 0.0 2 15
r 1.07996 1 3 cbr 1000 ------- 0 2.0 5.0 8 12
+ 1.07996 3 5 cbr 1000 ------- 0 2.0 5.0 8 12
- 1.07996 3 5 cbr 1000 ------- 0 2.0 5.0 8 12
+ 1.08 2 1 cbr 1000 ------- 0 2.0 5.0 10 16
- 1.08 2 1 cbr 1000 ------- 0 2.0 5.0 10 16
r 1.08216 2 1 cbr 1000 ------- 0 2.0 5.0 9 13
+ 1.08216 1 3 cbr 1000 ------- 0 2.0 5.0 9 13
- 1.08216 1 3 cbr 1000 ------- 0 2.0 5.0 9 13
r 1.08276 3 5 cbr 1000 ------- 0 2.0 5.0 8 12
r 1.086957 4 3 ack 40 ------- 0 4.0 0.0 1 14
+ 1.086957 3 1 ack 40 ------- 0 4.0 0.0 1 14
- 1.086957 3 1 ack 40 ------- 0 4.0 0.0 1 14
r 1.08796 1 3 cbr 1000 ------- 0 2.0 5.0 9 13
+ 1.08796 3 5 cbr 1000 ------- 0 2.0 5.0 9 13
- 1.08796 3 5 cbr 1000 ------- 0 2.0 5.0 9 13
+ 1.088 2 1 cbr 1000 ------- 0 2.0 5.0 11 17
- 1.088 2 1 cbr 1000 ------- 0 2.0 5.0 11 17
r 1.088189 4 3 ack 40 ------- 0 4.0 0.0 2 15
+ 1.088189 3 1 ack 40 ------- 0 4.0 0.0 2 15
- 1.088189 3 1 ack 40 ------- 0 4.0 0.0 2 15
r 1.09016 2 1 cbr 1000 ------- 0 2.0 5.0 10 16
+ 1.09016 1 3 cbr 1000 ------- 0 2.0 5.0 10 16
- 1.09016 1 3 cbr 1000 ------- 0 2.0 5.0 10 16
r 1.09076 3 5 cbr 1000 ------- 0 2.0 5.0 9 13
r 1.091989 3 1 ack 40 ------- 0 4.0 0.0 1 14
+ 1.091989 1 0 ack 40 ------- 0 4.0 0.0 1 14
- 1.091989 1 0 ack 40 ------- 0 4.0 0.0 1 14
r 1.093221 3 1 ack 40 ------- 0 4.0 0.0 2 15
+ 1.093221 1 0 ack 40 ------- 0 4.0 0.0 2 15
- 1.093221 1 0 ack 40 ------- 0 4.0 0.0 2 15
r 1.09596 1 3 cbr 1000 ------- 0 2.0 5.0 10 16
+ 1.09596 3 5 cbr 1000 ------- 0 2.0 5.0 10 16
- 1.09596 3 5 cbr 1000 ------- 0 2.0 5.0 10 16
+ 1.096 2 1 cbr 1000 ------- 0 2.0 5.0 12 18
- 1.096 2 1 cbr 1000 ------- 0 2.0 5.0 12 18
r 1.09816 2 1 cbr 1000 ------- 0 2.0 5.0 11 17
+ 1.09816 1 3 cbr 1000 ------- 0 2.0 5.0 11 17
- 1.09816 1 3 cbr 1000 ------- 0 2.0 5.0 11 17
r 1.09876 3 5 cbr 1000 ------- 0 2.0 5.0 10 16
r 1.101992 1 0 ack 40 ------- 0 4.0 0.0 1 14
+ 1.101992 0 1 tcp 1540 ------- 0 0.0 4.0 3 19
- 1.101992 0 1 tcp 1540 ------- 0 0.0 4.0 3 19
+ 1.101992 0 1 tcp 1540 ------- 0 0.0 4.0 4 20
- 1.102115 0 1 tcp 1540 ------- 0 0.0 4.0 4 20
r 1.103224 1 0 ack 40 ------- 0 4.0 0.0 2 15
+ 1.103224 0 1 tcp 1540 ------- 0 0.0 4.0 5 21
- 1.103224 0 1 tcp 1540 ------- 0 0.0 4.0 5 21
+ 1.103224 0 1 tcp 1540 ------- 0 0.0 4.0 6 22
- 1.103347 0 1 tcp 1540 ------- 0 0.0 4.0 6 22
r 1.10396 1 3 cbr 1000 ------- 0 2.0 5.0 11 17
+ 1.10396 3 5 cbr 1000 ------- 0 2.0 5.0 11 17
- 1.10396 3 5 cbr 1000 ------- 0 2.0 5.0 11 17
+ 1.104 2 1 cbr 1000 ------- 0 2.0 5.0 13 23
- 1.104 2 1 cbr 1000 ------- 0 2.0 5.0 13 23
r 1.10616 2 1 cbr 1000 ------- 0 2.0 5.0 12 18
+ 1.10616 1 3 cbr 1000 ------- 0 2.0 5.0 12 18
- 1.10616 1 3 cbr 1000 ------- 0 2.0 5.0 12 18
r 1.10676 3 5 cbr 1000 ------- 0 2.0 5.0 11 17
r 1.11196 1 3 cbr 1000 ------- 0 2.0 5.0 12 18
+ 1.11196 3 5 cbr 1000 ------- 0 2.0 5.0 12 18
- 1.11196 3 5 cbr 1000 ------- 0 2.0 5.0 12 18
+ 1.112 2 1 cbr 1000 ------- 0 2.0 5.0 14 24
- 1.112 2 1 cbr 1000 ------- 0 2.0 5.0 14 24
r 1.112115 0 1 tcp 1540 ------- 0 0.0 4.0 3 19
+ 1.112115 1 3 tcp 1540 ------- 0 0.0 4.0 3 19
- 1.112115 1 3 tcp 1540 ------- 0 0.0 4.0 3 19
r 1.112238 0 1 tcp 1540 ------- 0 0.0 4.0 4 20
+ 1.112238 1 3 tcp 1540 ------- 0 0.0 4.0 4 20
r 1.113347 0 1 tcp 1540 ------- 0 0.0 4.0 5 21
+ 1.113347 1 3 tcp 1540 ------- 0 0.0 4.0 5 21
- 1.113347 1 3 tcp 1540 ------- 0 0.0 4.0 4 20
r 1.11347 0 1 tcp 1540 ------- 0 0.0 4.0 6 22
+ 1.11347 1 3 tcp 1540 ------- 0 0.0 4.0 6 22
r 1.11416 2 1 cbr 1000 ------- 0 2.0 5.0 13 23
+ 1.11416 1 3 cbr 1000 ------- 0 2.0 5.0 13 23
- 1.114579 1 3 tcp 1540 ------- 0 0.0 4.0 5 21
r 1.11476 3 5 cbr 1000 ------- 0 2.0 5.0 12 18
- 1.115811 1 3 tcp 1540 ------- 0 0.0 4.0 6 22
- 1.117043 1 3 cbr 1000 ------- 0 2.0 5.0 13 23
r 1.118347 1 3 tcp 1540 ------- 0 0.0 4.0 3 19
+ 1.118347 3 4 tcp 1540 ------- 0 0.0 4.0 3 19
- 1.118347 3 4 tcp 1540 ------- 0 0.0 4.0 3 19
r 1.119579 1 3 tcp 1540 ------- 0 0.0 4.0 4 20
+ 1.119579 3 4 tcp 1540 ------- 0 0.0 4.0 4 20
- 1.119579 3 4 tcp 1540 ------- 0 0.0 4.0 4 20
+ 1.12 2 1 cbr 1000 ------- 0 2.0 5.0 15 25
- 1.12 2 1 cbr 1000 ------- 0 2.0 5.0 15 25
r 1.120811 1 3 tcp 1540 ------- 0 0.0 4.0 5 21
+ 1.120811 3 4 tcp 1540 ------- 0 0.0 4.0 5 21
- 1.120811 3 4 tcp 1540 ------- 0 0.0 4.0 5 21
r 1.122043 1 3 tcp 1540 ------- 0 0.0 4.0 6 22
+ 1.122043 3 4 tcp 1540 ------- 0 0.0 4.0 6 22
- 1.122043 3 4 tcp 1540 ------- 0 0.0 4.0 6 22
r 1.12216 2 1 cbr 1000 ------- 0 2.0 5.0 14 24
+ 1.12216 1 3 cbr 1000 ------- 0 2.0 5.0 14 24
- 1.12216 1 3 cbr 1000 ------- 0 2.0 5.0 14 24
r 1.122843 1 3 cbr 1000 ------- 0 2.0 5.0 13 23
+ 1.122843 3 5 cbr 1000 ------- 0 2.0 5.0 13 23
- 1.122843 3 5 cbr 1000 ------- 0 2.0 5.0 13 23
r 1.125643 3 5 cbr 1000 ------- 0 2.0 5.0 13 23
r 1.12796 1 3 cbr 1000 ------- 0 2.0 5.0 14 24
+ 1.12796 3 5 cbr 1000 ------- 0 2.0 5.0 14 24
- 1.12796 3 5 cbr 1000 ------- 0 2.0 5.0 14 24
+ 1.128 2 1 cbr 1000 ------- 0 2.0 5.0 16 26
- 1.128 2 1 cbr 1000 ------- 0 2.0 5.0 16 26
r 1.12884 3 4 tcp 1540 ------- 0 0.0 4.0 3 19
+ 1.12884 4 3 ack 40 ------- 0 4.0 0.0 3 27
- 1.12884 4 3 ack 40 ------- 0 4.0 0.0 3 27
r 1.130072 3 4 tcp 1540 ------- 0 0.0 4.0 4 20
+ 1.130072 4 3 ack 40 ------- 0 4.0 0.0 4 28
- 1.130072 4 3 ack 40 ------- 0 4.0 0.0 4 28
r 1.13016 2 1 cbr 1000 ------- 0 2.0 5.0 15 25
+ 1.13016 1 3 cbr 1000 ------- 0 2.0 5.0 15 25
- 1.13016 1 3 cbr 1000 ------- 0 2.0 5.0 15 25
r 1.13076 3 5 cbr 1000 ------- 0 2.0 5.0 14 24
r 1.131304 3 4 tcp 1540 ------- 0 0.0 4.0 5 21
+ 1.131304 4 3 ack 40 ------- 0 4.0 0.0 5 29
- 1.131304 4 3 ack 40 ------- 0 4.0 0.0 5 29
r 1.132536 3 4 tcp 1540 ------- 0 0.0 4.0 6 22
+ 1.132536 4 3 ack 40 ------- 0 4.0 0.0 6 30
- 1.132536 4 3 ack 40 ------- 0 4.0 0.0 6 30
r 1.13596 1 3 cbr 1000 ------- 0 2.0 5.0 15 25
+ 1.13596 3 5 cbr 1000 ------- 0 2.0 5.0 15 25
- 1.13596 3 5 cbr 1000 ------- 0 2.0 5.0 15 25
+ 1.136 2 1 cbr 1000 ------- 0 2.0 5.0 17 31
- 1.136 2 1 cbr 1000 ------- 0 2.0 5.0 17 31
r 1.13816 2 1 cbr 1000 ------- 0 2.0 5.0 16 26
+ 1.13816 1 3 cbr 1000 ------- 0 2.0 5.0 16 26
- 1.13816 1 3 cbr 1000 ------- 0 2.0 5.0 16 26
r 1.13876 3 5 cbr 1000 ------- 0 2.0 5.0 15 25
r 1.138853 4 3 ack 40 ------- 0 4.0 0.0 3 27
+ 1.138853 3 1 ack 40 ------- 0 4.0 0.0 3 27
- 1.138853 3 1 ack 40 ------- 0 4.0 0.0 3 27
r 1.140085 4 3 ack 40 ------- 0 4.0 0.0 4 28
+ 1.140085 3 1 ack 40 ------- 0 4.0 0.0 4 28
- 1.140085 3 1 ack 40 ------- 0 4.0 0.0 4 28
r 1.141317 4 3 ack 40 ------- 0 4.0 0.0 5 29
+ 1.141317 3 1 ack 40 ------- 0 4.0 0.0 5 29
- 1.141317 3 1 ack 40 ------- 0 4.0 0.0 5 29
r 1.142549 4 3 ack 40 ------- 0 4.0 0.0 6 30
+ 1.142549 3 1 ack 40 ------- 0 4.0 0.0 6 30
- 1.142549 3 1 ack 40 ------- 0 4.0 0.0 6 30
r 1.143885 3 1 ack 40 ------- 0 4.0 0.0 3 27
+ 1.143885 1 0 ack 40 ------- 0 4.0 0.0 3 27
- 1.143885 1 0 ack 40 ------- 0 4.0 0.0 3 27
r 1.14396 1 3 cbr 1000 ------- 0 2.0 5.0 16 26
+ 1.14396 3 5 cbr 1000 ------- 0 2.0 5.0 16 26
- 1.14396 3 5 cbr 1000 ------- 0 2.0 5.0 16 26
+ 1.144 2 1 cbr 1000 ------- 0 2.0 5.0 18 32
- 1.144 2 1 cbr 1000 ------- 0 2.0 5.0 18 32
r 1.145117 3 1 ack 40 ------- 0 4.0 0.0 4 28
+ 1.145117 1 0 ack 40 ------- 0 4.0 0.0 4 28
- 1.145117 1 0 ack 40 ------- 0 4.0 0.0 4 28
r 1.14616 2 1 cbr 1000 ------- 0 2.0 5.0 17 31
+ 1.14616 1 3 cbr 1000 ------- 0 2.0 5.0 17 31
- 1.14616 1 3 cbr 1000 ------- 0 2.0 5.0 17 31
r 1.146349 3 1 ack 40 ------- 0 4.0 0.0 5 29
+ 1.146349 1 0 ack 40 ------- 0 4.0 0.0 5 29
- 1.146349 1 0 ack 40 ------- 0 4.0 0.0 5 29
r 1.14676 3 5 cbr 1000 ------- 0 2.0 5.0 16 26
r 1.147581 3 1 ack 40 ------- 0 4.0 0.0 6 30
+ 1.147581 1 0 ack 40 ------- 0 4.0 0.0 6 30
- 1.147581 1 0 ack 40 ------- 0 4.0 0.0 6 30
r 1.15196 1 3 cbr 1000 ------- 0 2.0 5.0 17 31
+ 1.15196 3 5 cbr 1000 ------- 0 2.0 5.0 17 31
- 1.15196 3 5 cbr 1000 ------- 0 2.0 5.0 17 31
+ 1.152 2 1 cbr 1000 ------- 0 2.0 5.0 19 33
- 1.152 2 1 cbr 1000 ------- 0 2.0 5.0 19 33
r 1.153888 1 0 ack 40 ------- 0 4.0 0.0 3 27
+ 1.153888 0 1 tcp 1540 ------- 0 0.0 4.0 7 34
- 1.153888 0 1 tcp 1540 ------- 0 0.0 4.0 7 34
+ 1.153888 0 1 tcp 1540 ------- 0 0.0 4.0 8 35
- 1.154011 0 1 tcp 1540 ------- 0 0.0 4.0 8 35
r 1.15416 2 1 cbr 1000 ------- 0 2.0 5.0 18 32
+ 1.15416 1 3 cbr 1000 ------- 0 2.0 5.0 18 32
- 1.15416 1 3 cbr 1000 ------- 0 2.0 5.0 18 32
r 1.15476 3 5 cbr 1000 ------- 0 2.0 5.0 17 31
r 1.15512 1 0 ack 40 ------- 0 4.0 0.0 4 28
+ 1.15512 0 1 tcp 1540 ------- 0 0.0 4.0 9 36
- 1.15512 0 1 tcp 1540 ------- 0 0.0 4.0 9 36
+ 1.15512 0 1 tcp 1540 ------- 0 0.0 4.0 10 37
- 1.155243 0 1 tcp 1540 ------- 0 0.0 4.0 10 37
r 1.156352 1 0 ack 40 ------- 0 4.0 0.0 5 29
+ 1.156352 0 1 tcp 1540 ------- 0 0.0 4.0 11 38
- 1.156352 0 1 tcp 1540 ------- 0 0.0 4.0 11 38
+ 1.156352 0 1 tcp 1540 ------- 0 0.0 4.0 12 39
- 1.156475 0 1 tcp 1540 ------- 0 0.0 4.0 12 39
r 1.157584 1 0 ack 40 ------- 0 4.0 0.0 6 30
+ 1.157584 0 1 tcp 1540 ------- 0 0.0 4.0 13 40
- 1.157584 0 1 tcp 1540 ------- 0 0.0 4.0 13 40
+ 1.157584 0 1 tcp 1540 ------- 0 0.0 4.0 14 41
- 1.157707 0 1 tcp 1540 ------- 0 0.0 4.0 14 41
r 1.15996 1 3 cbr 1000 ------- 0 2.0 5.0 18 32
+ 1.15996 3 5 cbr 1000 ------- 0 2.0 5.0 18 32
- 1.15996 3 5 cbr 1000 ------- 0 2.0 5.0 18 32
+ 1.16 2 1 cbr 1000 ------- 0 2.0 5.0 20 42
- 1.16 2 1 cbr 1000 ------- 0 2.0 5.0 20 42
r 1.16216 2 1 cbr 1000 ------- 0 2.0 5.0 19 33
+ 1.16216 1 3 cbr 1000 ------- 0 2.0 5.0 19 33
- 1.16216 1 3 cbr 1000 ------- 0 2.0 5.0 19 33
r 1.16276 3 5 cbr 1000 ------- 0 2.0 5.0 18 32
r 1.164011 0 1 tcp 1540 ------- 0 0.0 4.0 7 34
+ 1.164011 1 3 tcp 1540 ------- 0 0.0 4.0 7 34
- 1.164011 1 3 tcp 1540 ------- 0 0.0 4.0 7 34
r 1.164134 0 1 tcp 1540 ------- 0 0.0 4.0 8 35
+ 1.164134 1 3 tcp 1540 ------- 0 0.0 4.0 8 35
r 1.165243 0 1 tcp 1540 ------- 0 0.0 4.0 9 36
+ 1.165243 1 3 tcp 1540 ------- 0 0.0 4.0 9 36
- 1.165243 1 3 tcp 1540 ------- 0 0.0 4.0 8 35
r 1.165366 0 1 tcp 1540 ------- 0 0.0 4.0 10 37
+ 1.165366 1 3 tcp 1540 ------- 0 0.0 4.0 10 37
r 1.166475 0 1 tcp 1540 ------- 0 0.0 4.0 11 38
+ 1.166475 1 3 tcp 1540 ------- 0 0.0 4.0 11 38
- 1.166475 1 3 tcp 1540 ------- 0 0.0 4.0 9 36
r 1.166598 0 1 tcp 1540 ------- 0 0.0 4.0 12 39
+ 1.166598 1 3 tcp 1540 ------- 0 0.0 4.0 12 39
r 1.167707 0 1 tcp 1540 ------- 0 0.0 4.0 13 40
+ 1.167707 1 3 tcp 1540 ------- 0 0.0 4.0 13 40
- 1.167707 1 3 tcp 1540 ------- 0 0.0 4.0 10 37
r 1.16783 0 1 tcp 1540 ------- 0 0.0 4.0 14 41
+ 1.16783 1 3 tcp 1540 ------- 0 0.0 4.0 14 41
r 1.16796 1 3 cbr 1000 ------- 0 2.0 5.0 19 33
+ 1.16796 3 5 cbr 1000 ------- 0 2.0 5.0 19 33
- 1.16796 3 5 cbr 1000 ------- 0 2.0 5.0 19 33
+ 1.168 2 1 cbr 1000 ------- 0 2.0 5.0 21 43
- 1.168 2 1 cbr 1000 ------- 0 2.0 5.0 21 43
- 1.168939 1 3 tcp 1540 ------- 0 0.0 4.0 11 38
r 1.17016 2 1 cbr 1000 ------- 0 2.0 5.0 20 42
+ 1.17016 1 3 cbr 1000 ------- 0 2.0 5.0 20 42
- 1.170171 1 3 tcp 1540 ------- 0 0.0 4.0 12 39
r 1.170243 1 3 tcp 1540 ------- 0 0.0 4.0 7 34
+ 1.170243 3 4 tcp 1540 ------- 0 0.0 4.0 7 34
- 1.170243 3 4 tcp 1540 ------- 0 0.0 4.0 7 34
r 1.17076 3 5 cbr 1000 ------- 0 2.0 5.0 19 33
- 1.171403 1 3 tcp 1540 ------- 0 0.0 4.0 13 40
r 1.171475 1 3 tcp 1540 ------- 0 0.0 4.0 8 35
+ 1.171475 3 4 tcp 1540 ------- 0 0.0 4.0 8 35
- 1.171475 3 4 tcp 1540 ------- 0 0.0 4.0 8 35
- 1.172635 1 3 tcp 1540 ------- 0 0.0 4.0 14 41
r 1.172707 1 3 tcp 1540 ------- 0 0.0 4.0 9 36
+ 1.172707 3 4 tcp 1540 ------- 0 0.0 4.0 9 36
- 1.172707 3 4 tcp 1540 ------- 0 0.0 4.0 9 36
- 1.173867 1 3 cbr 1000 ------- 0 2.0 5.0 20 42
r 1.173939 1 3 tcp 1540 ------- 0 0.0 4.0 10 37
+ 1.173939 3 4 tcp 1540 ------- 0 0.0 4.0 10 37
- 1.173939 3 4 tcp 1540 ------- 0 0.0 4.0 10 37
r 1.175171 1 3 tcp 1540 ------- 0 0.0 4.0 11 38
+ 1.175171 3 4 tcp 1540 ------- 0 0.0 4.0 11 38
- 1.175171 3 4 tcp 1540 ------- 0 0.0 4.0 11 38
+ 1.176 2 1 cbr 1000 ------- 0 2.0 5.0 22 44
- 1.176 2 1 cbr 1000 ------- 0 2.0 5.0 22 44
r 1.176403 1 3 tcp 1540 ------- 0 0.0 4.0 12 39
+ 1.176403 3 4 tcp 1540 ------- 0 0.0 4.0 12 39
- 1.176403 3 4 tcp 1540 ------- 0 0.0 4.0 12 39
r 1.177635 1 3 tcp 1540 ------- 0 0.0 4.0 13 40
+ 1.177635 3 4 tcp 1540 ------- 0 0.0 4.0 13 40
- 1.177635 3 4 tcp 1540 ------- 0 0.0 4.0 13 40
r 1.17816 2 1 cbr 1000 ------- 0 2.0 5.0 21 43
+ 1.17816 1 3 cbr 1000 ------- 0 2.0 5.0 21 43
- 1.17816 1 3 cbr 1000 ------- 0 2.0 5.0 21 43
r 1.178867 1 3 tcp 1540 ------- 0 0.0 4.0 14 41
+ 1.178867 3 4 tcp 1540 ------- 0 0.0 4.0 14 41
- 1.178867 3 4 tcp 1540 ------- 0 0.0 4.0 14 41
r 1.179667 1 3 cbr 1000 ------- 0 2.0 5.0 20 42
+ 1.179667 3 5 cbr 1000 ------- 0 2.0 5.0 20 42
- 1.179667 3 5 cbr 1000 ------- 0 2.0 5.0 20 42
r 1.180736 3 4 tcp 1540 ------- 0 0.0 4.0 7 34
+ 1.180736 4 3 ack 40 ------- 0 4.0 0.0 7 45
- 1.180736 4 3 ack 40 ------- 0 4.0 0.0 7 45
r 1.181968 3 4 tcp 1540 ------- 0 0.0 4.0 8 35
+ 1.181968 4 3 ack 40 ------- 0 4.0 0.0 8 46
- 1.181968 4 3 ack 40 ------- 0 4.0 0.0 8 46
r 1.182467 3 5 cbr 1000 ------- 0 2.0 5.0 20 42
r 1.1832 3 4 tcp 1540 ------- 0 0.0 4.0 9 36
+ 1.1832 4 3 ack 40 ------- 0 4.0 0.0 9 47
- 1.1832 4 3 ack 40 ------- 0 4.0 0.0 9 47
r 1.18396 1 3 cbr 1000 ------- 0 2.0 5.0 21 43
+ 1.18396 3 5 cbr 1000 ------- 0 2.0 5.0 21 43
- 1.18396 3 5 cbr 1000 ------- 0 2.0 5.0 21 43
+ 1.184 2 1 cbr 1000 ------- 0 2.0 5.0 23 48
- 1.184 2 1 cbr 1000 ------- 0 2.0 5.0 23 48
r 1.184432 3 4 tcp 1540 ------- 0 0.0 4.0 10 37
+ 1.184432 4 3 ack 40 ------- 0 4.0 0.0 10 49
- 1.184432 4 3 ack 40 ------- 0 4.0 0.0 10 49
r 1.185664 3 4 tcp 1540 ------- 0 0.0 4.0 11 38
+ 1.185664 4 3 ack 40 ------- 0 4.0 0.0 11 50
- 1.185664 4 3 ack 40 ------- 0 4.0 0.0 11 50
r 1.18616 2 1 cbr 1000 ------- 0 2.0 5.0 22 44
+ 1.18616 1 3 cbr 1000 ------- 0 2.0 5.0 22 44
- 1.18616 1 3 cbr 1000 ------- 0 2.0 5.0 22 44
r 1.18676 3 5 cbr 1000 ------- 0 2.0 5.0 21 43
r 1.186896 3 4 tcp 1540 ------- 0 0.0 4.0 12 39
+ 1.186896 4 3 ack 40 ------- 0 4.0 0.0 12 51
- 1.186896 4 3 ack 40 ------- 0 4.0 0.0 12 51
r 1.188128 3 4 tcp 1540 ------- 0 0.0 4.0 13 40
+ 1.188128 4 3 ack 40 ------- 0 4.0 0.0 13 52
- 1.188128 4 3 ack 40 ------- 0 4.0 0.0 13 52
r 1.18936 3 4 tcp 1540 ------- 0 0.0 4.0 14 41
+ 1.18936 4 3 ack 40 ------- 0 4.0 0.0 14 53
- 1.18936 4 3 ack 40 ------- 0 4.0 0.0 14 53
r 1.190749 4 3 ack 40 ------- 0 4.0 0.0 7 45
+ 1.190749 3 1 ack 40 ------- 0 4.0 0.0 7 45
- 1.190749 3 1 ack 40 ------- 0 4.0 0.0 7 45
r 1.19196 1 3 cbr 1000 ------- 0 2.0 5.0 22 44
+ 1.19196 3 5 cbr 1000 ------- 0 2.0 5.0 22 44
- 1.19196 3 5 cbr 1000 ------- 0 2.0 5.0 22 44
r 1.191981 4 3 ack 40 ------- 0 4.0 0.0 8 46
+ 1.191981 3 1 ack 40 ------- 0 4.0 0.0 8 46
- 1.191981 3 1 ack 40 ------- 0 4.0 0.0 8 46
+ 1.192 2 1 cbr 1000 ------- 0 2.0 5.0 24 54
- 1.192 2 1 cbr 1000 ------- 0 2.0 5.0 24 54
r 1.193213 4 3 ack 40 ------- 0 4.0 0.0 9 47
+ 1.193213 3 1 ack 40 ------- 0 4.0 0.0 9 47
- 1.193213 3 1 ack 40 ------- 0 4.0 0.0 9 47
r 1.19416 2 1 cbr 1000 ------- 0 2.0 5.0 23 48
+ 1.19416 1 3 cbr 1000 ------- 0 2.0 5.0 23 48
- 1.19416 1 3 cbr 1000 ------- 0 2.0 5.0 23 48
r 1.194445 4 3 ack 40 ------- 0 4.0 0.0 10 49
+ 1.194445 3 1 ack 40 ------- 0 4.0 0.0 10 49
- 1.194445 3 1 ack 40 ------- 0 4.0 0.0 10 49
r 1.19476 3 5 cbr 1000 ------- 0 2.0 5.0 22 44
r 1.195677 4 3 ack 40 ------- 0 4.0 0.0 11 50
+ 1.195677 3 1 ack 40 ------- 0 4.0 0.0 11 50
- 1.195677 3 1 ack 40 ------- 0 4.0 0.0 11 50
r 1.195781 3 1 ack 40 ------- 0 4.0 0.0 7 45
+ 1.195781 1 0 ack 40 ------- 0 4.0 0.0 7 45
- 1.195781 1 0 ack 40 ------- 0 4.0 0.0 7 45
r 1.196909 4 3 ack 40 ------- 0 4.0 0.0 12 51
+ 1.196909 3 1 ack 40 ------- 0 4.0 0.0 12 51
- 1.196909 3 1 ack 40 ------- 0 4.0 0.0 12 51
r 1.197013 3 1 ack 40 ------- 0 4.0 0.0 8 46
+ 1.197013 1 0 ack 40 ------- 0 4.0 0.0 8 46
- 1.197013 1 0 ack 40 ------- 0 4.0 0.0 8 46
r 1.198141 4 3 ack 40 ------- 0 4.0 0.0 13 52
+ 1.198141 3 1 ack 40 ------- 0 4.0 0.0 13 52
- 1.198141 3 1 ack 40 ------- 0 4.0 0.0 13 52
r 1.198245 3 1 ack 40 ------- 0 4.0 0.0 9 47
+ 1.198245 1 0 ack 40 ------- 0 4.0 0.0 9 47
- 1.198245 1 0 ack 40 ------- 0 4.0 0.0 9 47
r 1.199373 4 3 ack 40 ------- 0 4.0 0.0 14 53
+ 1.199373 3 1 ack 40 ------- 0 4.0 0.0 14 53
- 1.199373 3 1 ack 40 ------- 0 4.0 0.0 14 53
r 1.199477 3 1 ack 40 ------- 0 4.0 0.0 10 49
+ 1.199477 1 0 ack 40 ------- 0 4.0 0.0 10 49
- 1.199477 1 0 ack 40 ------- 0 4.0 0.0 10 49
r 1.19996 1 3 cbr 1000 ------- 0 2.0 5.0 23 48
+ 1.19996 3 5 cbr 1000 ------- 0 2.0 5.0 23 48
- 1.19996 3 5 cbr 1000 ------- 0 2.0 5.0 23 48
+ 1.2 2 1 cbr 1000 ------- 0 2.0 5.0 25 55
- 1.2 2 1 cbr 1000 ------- 0 2.0 5.0 25 55
r 1.200709 3 1 ack 40 ------- 0 4.0 0.0 11 50
+ 1.200709 1 0 ack 40 ------- 0 4.0 0.0 11 50
- 1.200709 1 0 ack 40 ------- 0 4.0 0.0 11 50
r 1.201941 3 1 ack 40 ------- 0 4.0 0.0 12 51
+ 1.201941 1 0 ack 40 ------- 0 4.0 0.0 12 51
- 1.201941 1 0 ack 40 ------- 0 4.0 0.0 12 51
r 1.20216 2 1 cbr 1000 ------- 0 2.0 5.0 24 54
+ 1.20216 1 3 cbr 1000 ------- 0 2.0 5.0 24 54
- 1.20216 1 3 cbr 1000 ------- 0 2.0 5.0 24 54
r 1.20276 3 5 cbr 1000 ------- 0 2.0 5.0 23 48
r 1.203173 3 1 ack 40 ------- 0 4.0 0.0 13 52
+ 1.203173 1 0 ack 40 ------- 0 4.0 0.0 13 52
- 1.203173 1 0 ack 40 ------- 0 4.0 0.0 13 52
r 1.204405 3 1 ack 40 ------- 0 4.0 0.0 14 53
+ 1.204405 1 0 ack 40 ------- 0 4.0 0.0 14 53
- 1.204405 1 0 ack 40 ------- 0 4.0 0.0 14 53
r 1.205784 1 0 ack 40 ------- 0 4.0 0.0 7 45
+ 1.205784 0 1 tcp 1540 ------- 0 0.0 4.0 15 56
- 1.205784 0 1 tcp 1540 ------- 0 0.0 4.0 15 56
+ 1.205784 0 1 tcp 1540 ------- 0 0.0 4.0 16 57
- 1.205907 0 1 tcp 1540 ------- 0 0.0 4.0 16 57
r 1.207016 1 0 ack 40 ------- 0 4.0 0.0 8 46
+ 1.207016 0 1 tcp 1540 ------- 0 0.0 4.0 17 58
- 1.207016 0 1 tcp 1540 ------- 0 0.0 4.0 17 58
+ 1.207016 0 1 tcp 1540 ------- 0 0.0 4.0 18 59
- 1.207139 0 1 tcp 1540 ------- 0 0.0 4.0 18 59
r 1.20796 1 3 cbr 1000 ------- 0 2.0 5.0 24 54
+ 1.20796 3 5 cbr 1000 ------- 0 2.0 5.0 24 54
- 1.20796 3 5 cbr 1000 ------- 0 2.0 5.0 24 54
+ 1.208 2 1 cbr 1000 ------- 0 2.0 5.0 26 60
- 1.208 2 1 cbr 1000 ------- 0 2.0 5.0 26 60
r 1.208248 1 0 ack 40 ------- 0 4.0 0.0 9 47
+ 1.208248 0 1 tcp 1540 ------- 0 0.0 4.0 19 61
- 1.208248 0 1 tcp 1540 ------- 0 0.0 4.0 19 61
+ 1.208248 0 1 tcp 1540 ------- 0 0.0 4.0 20 62
- 1.208371 0 1 tcp 1540 ------- 0 0.0 4.0 20 62
r 1.20948 1 0 ack 40 ------- 0 4.0 0.0 10 49
+ 1.20948 0 1 tcp 1540 ------- 0 0.0 4.0 21 63
- 1.20948 0 1 tcp 1540 ------- 0 0.0 4.0 21 63
+ 1.20948 0 1 tcp 1540 ------- 0 0.0 4.0 22 64
- 1.209603 0 1 tcp 1540 ------- 0 0.0 4.0 22 64
r 1.21016 2 1 cbr 1000 ------- 0 2.0 5.0 25 55
+ 1.21016 1 3 cbr 1000 ------- 0 2.0 5.0 25 55
- 1.21016 1 3 cbr 1000 ------- 0 2.0 5.0 25 55
r 1.210712 1 0 ack 40 ------- 0 4.0 0.0 11 50
+ 1.210712 0 1 tcp 1540 ------- 0 0.0 4.0 23 65
- 1.210712 0 1 tcp 1540 ------- 0 0.0 4.0 23 65
+ 1.210712 0 1 tcp 1540 ------- 0 0.0 4.0 24 66
r 1.21076 3 5 cbr 1000 ------- 0 2.0 5.0 24 54
- 1.210835 0 1 tcp 1540 ------- 0 0.0 4.0 24 66
r 1.211944 1 0 ack 40 ------- 0 4.0 0.0 12 51
+ 1.211944 0 1 tcp 1540 ------- 0 0.0 4.0 25 67
- 1.211944 0 1 tcp 1540 ------- 0 0.0 4.0 25 67
+ 1.211944 0 1 tcp 1540 ------- 0 0.0 4.0 26 68
- 1.212067 0 1 tcp 1540 ------- 0 0.0 4.0 26 68
r 1.213176 1 0 ack 40 ------- 0 4.0 0.0 13 52
+ 1.213176 0 1 tcp 1540 ------- 0 0.0 4.0 27 69
- 1.213176 0 1 tcp 1540 ------- 0 0.0 4.0 27 69
+ 1.213176 0 1 tcp 1540 ------- 0 0.0 4.0 28 70
- 1.213299 0 1 tcp 1540 ------- 0 0.0 4.0 28 70
r 1.214408 1 0 ack 40 ------- 0 4.0 0.0 14 53
+ 1.214408 0 1 tcp 1540 ------- 0 0.0 4.0 29 71
- 1.214408 0 1 tcp 1540 ------- 0 0.0 4.0 29 71
+ 1.214408 0 1 tcp 1540 ------- 0 0.0 4.0 30 72
- 1.214531 0 1 tcp 1540 ------- 0 0.0 4.0 30 72
r 1.215907 0 1 tcp 1540 ------- 0 0.0 4.0 15 56
+ 1.215907 1 3 tcp 1540 ------- 0 0.0 4.0 15 56
- 1.215907 1 3 tcp 1540 ------- 0 0.0 4.0 15 56
r 1.21596 1 3 cbr 1000 ------- 0 2.0 5.0 25 55
+ 1.21596 3 5 cbr 1000 ------- 0 2.0 5.0 25 55
- 1.21596 3 5 cbr 1000 ------- 0 2.0 5.0 25 55
+ 1.216 2 1 cbr 1000 ------- 0 2.0 5.0 27 73
- 1.216 2 1 cbr 1000 ------- 0 2.0 5.0 27 73
r 1.21603 0 1 tcp 1540 ------- 0 0.0 4.0 16 57
+ 1.21603 1 3 tcp 1540 ------- 0 0.0 4.0 16 57
r 1.217139 0 1 tcp 1540 ------- 0 0.0 4.0 17 58
+ 1.217139 1 3 tcp 1540 ------- 0 0.0 4.0 17 58
- 1.217139 1 3 tcp 1540 ------- 0 0.0 4.0 16 57
r 1.217262 0 1 tcp 1540 ------- 0 0.0 4.0 18 59
+ 1.217262 1 3 tcp 1540 ------- 0 0.0 4.0 18 59
r 1.21816 2 1 cbr 1000 ------- 0 2.0 5.0 26 60
+ 1.21816 1 3 cbr 1000 ------- 0 2.0 5.0 26 60
r 1.218371 0 1 tcp 1540 ------- 0 0.0 4.0 19 61
+ 1.218371 1 3 tcp 1540 ------- 0 0.0 4.0 19 61
- 1.218371 1 3 tcp 1540 ------- 0 0.0 4.0 17 58
r 1.218494 0 1 tcp 1540 ------- 0 0.0 4.0 20 62
+ 1.218494 1 3 tcp 1540 ------- 0 0.0 4.0 20 62
r 1.21876 3 5 cbr 1000 ------- 0 2.0 5.0 25 55
r 1.219603 0 1 tcp 1540 ------- 0 0.0 4.0 21 63
+ 1.219603 1 3 tcp 1540 ------- 0 0.0 4.0 21 63
- 1.219603 1 3 tcp 1540 ------- 0 0.0 4.0 18 59
r 1.219726 0 1 tcp 1540 ------- 0 0.0 4.0 22 64
+ 1.219726 1 3 tcp 1540 ------- 0 0.0 4.0 22 64
r 1.220835 0 1 tcp 1540 ------- 0 0.0 4.0 23 65
+ 1.220835 1 3 tcp 1540 ------- 0 0.0 4.0 23 65
- 1.220835 1 3 cbr 1000 ------- 0 2.0 5.0 26 60
r 1.220958 0 1 tcp 1540 ------- 0 0.0 4.0 24 66
+ 1.220958 1 3 tcp 1540 ------- 0 0.0 4.0 24 66
- 1.221635 1 3 tcp 1540 ------- 0 0.0 4.0 19 61
r 1.222067 0 1 tcp 1540 ------- 0 0.0 4.0 25 67
+ 1.222067 1 3 tcp 1540 ------- 0 0.0 4.0 25 67
r 1.222139 1 3 tcp 1540 ------- 0 0.0 4.0 15 56
+ 1.222139 3 4 tcp 1540 ------- 0 0.0 4.0 15 56
- 1.222139 3 4 tcp 1540 ------- 0 0.0 4.0 15 56
r 1.22219 0 1 tcp 1540 ------- 0 0.0 4.0 26 68
+ 1.22219 1 3 tcp 1540 ------- 0 0.0 4.0 26 68
- 1.222867 1 3 tcp 1540 ------- 0 0.0 4.0 20 62
r 1.223299 0 1 tcp 1540 ------- 0 0.0 4.0 27 69
+ 1.223299 1 3 tcp 1540 ------- 0 0.0 4.0 27 69
r 1.223371 1 3 tcp 1540 ------- 0 0.0 4.0 16 57
+ 1.223371 3 4 tcp 1540 ------- 0 0.0 4.0 16 57
- 1.223371 3 4 tcp 1540 ------- 0 0.0 4.0 16 57
r 1.223422 0 1 tcp 1540 ------- 0 0.0 4.0 28 70
+ 1.223422 1 3 tcp 1540 ------- 0 0.0 4.0 28 70
+ 1.224 2 1 cbr 1000 ------- 0 2.0 5.0 28 74
- 1.224 2 1 cbr 1000 ------- 0 2.0 5.0 28 74
- 1.224099 1 3 tcp 1540 ------- 0 0.0 4.0 21 63
r 1.224531 0 1 tcp 1540 ------- 0 0.0 4.0 29 71
+ 1.224531 1 3 tcp 1540 ------- 0 0.0 4.0 29 71
r 1.224603 1 3 tcp 1540 ------- 0 0.0 4.0 17 58
+ 1.224603 3 4 tcp 1540 ------- 0 0.0 4.0 17 58
- 1.224603 3 4 tcp 1540 ------- 0 0.0 4.0 17 58
r 1.224654 0 1 tcp 1540 ------- 0 0.0 4.0 30 72
+ 1.224654 1 3 tcp 1540 ------- 0 0.0 4.0 30 72
- 1.225331 1 3 tcp 1540 ------- 0 0.0 4.0 22 64
r 1.225835 1 3 tcp 1540 ------- 0 0.0 4.0 18 59
+ 1.225835 3 4 tcp 1540 ------- 0 0.0 4.0 18 59
- 1.225835 3 4 tcp 1540 ------- 0 0.0 4.0 18 59
r 1.22616 2 1 cbr 1000 ------- 0 2.0 5.0 27 73
+ 1.22616 1 3 cbr 1000 ------- 0 2.0 5.0 27 73
- 1.226563 1 3 tcp 1540 ------- 0 0.0 4.0 23 65
r 1.226635 1 3 cbr 1000 ------- 0 2.0 5.0 26 60
+ 1.226635 3 5 cbr 1000 ------- 0 2.0 5.0 26 60
- 1.226635 3 5 cbr 1000 ------- 0 2.0 5.0 26 60
- 1.227795 1 3 tcp 1540 ------- 0 0.0 4.0 24 66
r 1.227867 1 3 tcp 1540 ------- 0 0.0 4.0 19 61
+ 1.227867 3 4 tcp 1540 ------- 0 0.0 4.0 19 61
- 1.227867 3 4 tcp 1540 ------- 0 0.0 4.0 19 61
- 1.229027 1 3 tcp 1540 ------- 0 0.0 4.0 25 67
r 1.229099 1 3 tcp 1540 ------- 0 0.0 4.0 20 62
+ 1.229099 3 4 tcp 1540 ------- 0 0.0 4.0 20 62
- 1.229099 3 4 tcp 1540 ------- 0 0.0 4.0 20 62
r 1.229435 3 5 cbr 1000 ------- 0 2.0 5.0 26 60
- 1.230259 1 3 tcp 1540 ------- 0 0.0 4.0 26 68
r 1.230331 1 3 tcp 1540 ------- 0 0.0 4.0 21 63
+ 1.230331 3 4 tcp 1540 ------- 0 0.0 4.0 21 63
- 1.230331 3 4 tcp 1540 ------- 0 0.0 4.0 21 63
- 1.231491 1 3 tcp 1540 ------- 0 0.0 4.0 27 69
r 1.231563 1 3 tcp 1540 ------- 0 0.0 4.0 22 64
+ 1.231563 3 4 tcp 1540 ------- 0 0.0 4.0 22 64
- 1.231563 3 4 tcp 1540 ------- 0 0.0 4.0 22 64
+ 1.232 2 1 cbr 1000 ------- 0 2.0 5.0 29 75
- 1.232 2 1 cbr 1000 ------- 0 2.0 5.0 29 75
r 1.232632 3 4 tcp 1540 ------- 0 0.0 4.0 15 56
+ 1.232632 4 3 ack 40 ------- 0 4.0 0.0 15 76
- 1.232632 4 3 ack 40 ------- 0 4.0 0.0 15 76
- 1.232723 1 3 tcp 1540 ------- 0 0.0 4.0 28 70
r 1.232795 1 3 tcp 1540 ------- 0 0.0 4.0 23 65
+ 1.232795 3 4 tcp 1540 ------- 0 0.0 4.0 23 65
- 1.232795 3 4 tcp 1540 ------- 0 0.0 4.0 23 65
r 1.233864 3 4 tcp 1540 ------- 0 0.0 4.0 16 57
+ 1.233864 4 3 ack 40 ------- 0 4.0 0.0 16 77
- 1.233864 4 3 ack 40 ------- 0 4.0 0.0 16 77
- 1.233955 1 3 tcp 1540 ------- 0 0.0 4.0 29 71
r 1.234027 1 3 tcp 1540 ------- 0 0.0 4.0 24 66
+ 1.234027 3 4 tcp 1540 ------- 0 0.0 4.0 24 66
- 1.234027 3 4 tcp 1540 ------- 0 0.0 4.0 24 66
r 1.23416 2 1 cbr 1000 ------- 0 2.0 5.0 28 74
+ 1.23416 1 3 cbr 1000 ------- 0 2.0 5.0 28 74
r 1.235096 3 4 tcp 1540 ------- 0 0.0 4.0 17 58
+ 1.235096 4 3 ack 40 ------- 0 4.0 0.0 17 78
- 1.235096 4 3 ack 40 ------- 0 4.0 0.0 17 78
- 1.235187 1 3 tcp 1540 ------- 0 0.0 4.0 30 72
r 1.235259 1 3 tcp 1540 ------- 0 0.0 4.0 25 67
+ 1.235259 3 4 tcp 1540 ------- 0 0.0 4.0 25 67
- 1.235259 3 4 tcp 1540 ------- 0 0.0 4.0 25 67
r 1.236328 3 4 tcp 1540 ------- 0 0.0 4.0 18 59
+ 1.236328 4 3 ack 40 ------- 0 4.0 0.0 18 79