V -t * -v 1.0a5 -a 0
A -t * -n 1 -p 0 -o 0x7fffffff -c 30 -a 1
A -t * -h 1 -m 1073741823 -s 0
n -t * -a 4 -s 4 -S UP -v circle -c black -i black
n -t * -a 0 -s 0 -S UP -v circle -c black -i black
n -t * -a 5 -s 5 -S UP -v circle -c black -i black
n -t * -a 1 -s 1 -S UP -v circle -c black -i black
n -t * -a 2 -s 2 -S UP -v circle -c black -i black
n -t * -a 3 -s 3 -S UP -v circle -c black -i black
l -t * -s 0 -d 1 -S UP -r 100000000 -D 0.01 -c black -o right-down
l -t * -s 1 -d 3 -S UP -r 10000000 -D 0.0050000000000000001 -c black -o right
l -t * -s 3 -d 4 -S UP -r 25000000 -D 0.01 -c black -o right-up
l -t * -s 1 -d 2 -S UP -r 50000000 -D 0.01 -c black -o left-down
l -t * -s 3 -d 5 -S UP -r 10000000 -D 0.002 -c black -o right-down
+ -t 1 -s 0 -d 1 -p tcp -e 40 -c 0 -i 0 -a 0 -x {0.0 4.0 0 ------- null}
- -t 1 -s 0 -d 1 -p tcp -e 40 -c 0 -i 0 -a 0 -x {0.0 4.0 0 ------- null}
h -t 1 -s 0 -d 1 -p tcp -e 40 -c 0 -i 0 -a 0 -x {0.0 4.0 -1 ------- null}
+ -t 1 -s 2 -d 1 -p cbr -e 1000 -c 0 -i 1 -a 0 -x {2.0 5.0 0 ------- null}
- -t 1 -s 2 -d 1 -p cbr -e 1000 -c 0 -i 1 -a 0 -x {2.0 5.0 0 ------- null}
h -t 1 -s 2 -d 1 -p cbr -e 1000 -c 0 -i 1 -a 0 -x {2.0 5.0 -1 ------- null}
+ -t 1.008 -s 2 -d 1 -p cbr -e 1000 -c 0 -i 2 -a 0 -x {2.0 5.0 1 ------- null}
- -t 1.008 -s 2 -d 1 -p cbr -e 1000 -c 0 -i 2 -a 0 -x {2.0 5.0 1 ------- null}
h -t 1.008 -s 2 -d 1 -p cbr -e 1000 -c 0 -i 2 -a 0 -x {2.0 5.0 -1 ------- null}
r -t 1.0100032 -s 0 -d 1 -p tcp -e 40 -c 0 -i 0 -a 0 -x {0.0 4.0 0 ------- null}
+ -t 1.0100032 -s 1 -d 3 -p tcp -e 40 -c 0 -i 0 -a 0 -x {0.0 4.0 0 ------- null}
- -t 1.0100032 -s 1 -d 3 -p tcp -e 40 -c 0 -i 0 -a 0 -x {0.0 4.0 0 ------- null}
h -t 1.0100032 -s 1 -d 3 -p tcp -e 40 -c 0 -i 0 -a 0 -x {0.0 4.0 -1 ------- null}
r -t 1.01016 -s 2 -d 1 -p cbr -e 1000 -c 0 -i 1 -a 0 -x {2.0 5.0 0 ------- null}
+ -t 1.01016 -s 1 -d 3 -p cbr -e 1000 -c 0 -i 1 -a 0 -x {2.0 5.0 0 ------- null}
- -t 1.01016 -s 1 -d 3 -p cbr -e 1000 -c 0 -i 1 -a 0 -x {2.0 5.0 0 ------- null}
h -t 1.01016 -s 1 -d 3 -p cbr -e 1000 -c 0 -i 1 -a 0 -x {2.0 5.0 -1 ------- null}
r -t 1.0150352 -s 1 -d 3 -p tcp -e 40 -c 0 -i 0 -a 0 -x {0.0 4.0 0 ------- null}
+ -t 1.0150352 -s 3 -d 4 -p tcp -e 40 -c 0 -i 0 -a 0 -x {0.0 4.0 0 ------- null}
- -t 1.0150352 -s 3 -d 4 -p tcp -e 40 -c 0 -i 0 -a 0 -x {0.0 4.0 0 ------- null}
h -t 1.0150352 -s 3 -d 4 -p tcp -e 40 -c 0 -i 0 -a 0 -x {0.0 4.0 -1 ------- null}
r -t 1.01596 -s 1 -d 3 -p cbr -e 1000 -c 0 -i 1 -a 0 -x {2.0 5.0 0 ------- null}
+ -t 1.01596 -s 3 -d 5 -p cbr -e 1000 -c 0 -i 1 -a 0 -x {2.0 5.0 0 ------- null}
- -t 1.01596 -s 3 -d 5 -p cbr -e 1000 -c 0 -i 1 -a 0 -x {2.0 5.0 0 ------- null}
h -t 1.01596 -s 3 -d 5 -p cbr -e 1000 -c 0 -i 1 -a 0 -x {2.0 5.0 -1 ------- null}
+ -t 1.016 -s 2 -d 1 -p cbr -e 1000 -c 0 -i 3 -a 0 -x {2.0 5.0 2 ------- null}
- -t 1.016 -s 2 -d 1 -p cbr -e 1000 -c 0 -i 3 -a 0 -x {2.0 5.0 2 ------- null}
h -t 1.016 -s 2 -d 1 -p cbr -e 1000 -c 0 -i 3 -a 0 -x {2.0 5.0 -1 ------- null}
r -t 1.01816 -s 2 -d 1 -p cbr -e 1000 -c 0 -i 2 -a 0 -x {2.0 5.0 1 ------- null}
+ -t 1.01816 -s 1 -d 3 -p cbr -e 1000 -c 0 -i 2 -a 0 -x {2.0 5.0 1 ------- null}
- -t 1.01816 -s 1 -d 3 -p cbr -e 1000 -c 0 -i 2 -a 0 -x {2.0 5.0 1 ------- null}
h -t 1.01816 -s 1 -d 3 -p cbr -e 1000 -c 0 -i 2 -a 0 -x {2.0 5.0 -1 ------- null}
r -t 1.01876 -s 3 -d 5 -p cbr -e 1000 -c 0 -i 1 -a 0 -x {2.0 5.0 0 ------- null}
r -t 1.02396 -s 1 -d 3 -p cbr -e 1000 -c 0 -i 2 -a 0 -x {2.0 5.0 1 ------- null}
+ -t 1.02396 -s 3 -d 5 -p cbr -e 1000 -c 0 -i 2 -a 0 -x {2.0 5.0 1 ------- null}
- -t 1.02396 -s 3 -d 5 -p cbr -e 1000 -c 0 -i 2 -a 0 -x {2.0 5.0 1 ------- null}
h -t 1.02396 -s 3 -d 5 -p cbr -e 1000 -c 0 -i 2 -a 0 -x {2.0 5.0 -1 ------- null}
+ -t 1.024 -s 2 -d 1 -p cbr -e 1000 -c 0 -i 4 -a 0 -x {2.0 5.0 3 ------- null}
- -t 1.024 -s 2 -d 1 -p cbr -e 1000 -c 0 -i 4 -a 0 -x {2.0 5.0 3 ------- null}
h -t 1.024 -s 2 -d 1 -p cbr -e 1000 -c 0 -i 4 -a 0 -x {2.0 5.0 -1 ------- null}
r -t 1.025048 -s 3 -d 4 -p tcp -e 40 -c 0 -i 0 -a 0 -x {0.0 4.0 0 ------- null}
+ -t 1.025048 -s 4 -d 3 -p ack -e 40 -c 0 -i 5 -a 0 -x {4.0 0.0 0 ------- null}
- -t 1.025048 -s 4 -d 3 -p ack -e 40 -c 0 -i 5 -a 0 -x {4.0 0.0 0 ------- null}
h -t 1.025048 -s 4 -d 3 -p ack -e 40 -c 0 -i 5 -a 0 -x {4.0 0.0 -1 ------- null}
r -t 1.02616 -s 2 -d 1 -p cbr -e 1000 -c 0 -i 3 -a 0 -x {2.0 5.0 2 ------- null}
+ -t 1.02616 -s 1 -d 3 -p cbr -e 1000 -c 0 -i 3 -a 0 -x {2.0 5.0 2 ------- null}
- -t 1.02616 -s 1 -d 3 -p cbr -e 1000 -c 0 -i 3 -a 0 -x {2.0 5.0 2 ------- null}
h -t 1.02616 -s 1 -d 3 -p cbr -e 1000 -c 0 -i 3 -a 0 -x {2.0 5.0 -1 ------- null}
r -t 1.02676 -s 3 -d 5 -p cbr -e 1000 -c 0 -i 2 -a 0 -x {2.0 5.0 1 ------- null}
r -t 1.03196 -s 1 -d 3 -p cbr -e 1000 -c 0 -i 3 -a 0 -x {2.0 5.0 2 ------- null}
+ -t 1.03196 -s 3 -d 5 -p cbr -e 1000 -c 0 -i 3 -a 0 -x {2.0 5.0 2 ------- null}
- -t 1.03196 -s 3 -d 5 -p cbr -e 1000 -c 0 -i 3 -a 0 -x {2.0 5.0 2 ------- null}
h -t 1.03196 -s 3 -d 5 -p cbr -e 1000 -c 0 -i 3 -a 0 -x {2.0 5.0 -1 ------- null}
+ -t 1.032 -s 2 -d 1 -p cbr -e 1000 -c 0 -i 6 -a 0 -x {2.0 5.0 4 ------- null}
- -t 1.032 -s 2 -d 1 -p cbr -e 1000 -c 0 -i 6 -a 0 -x {2.0 5.0 4 ------- null}
h -t 1.032 -s 2 -d 1 -p cbr -e 1000 -c 0 -i 6 -a 0 -x {2.0 5.0 -1 ------- null}
r -t 1.03416 -s 2 -d 1 -p cbr -e 1000 -c 0 -i 4 -a 0 -x {2.0 5.0 3 ------- null}
+ -t 1.03416 -s 1 -d 3 -p cbr -e 1000 -c 0 -i 4 -a 0 -x {2.0 5.0 3 ------- null}
- -t 1.03416 -s 1 -d 3 -p cbr -e 1000 -c 0 -i 4 -a 0 -x {2.0 5.0 3 ------- null}
h -t 1.03416 -s 1 -d 3 -p cbr -e 1000 -c 0 -i 4 -a 0 -x {2.0 5.0 -1 ------- null}
r -t 1.03476 -s 3 -d 5 -p cbr -e 1000 -c 0 -i 3 -a 0 -x {2.0 5.0 2 ------- null}
r -t 1.0350608 -s 4 -d 3 -p ack -e 40 -c 0 -i 5 -a 0 -x {4.0 0.0 0 ------- null}
+ -t 1.0350608 -s 3 -d 1 -p ack -e 40 -c 0 -i 5 -a 0 -x {4.0 0.0 0 ------- null}
- -t 1.0350608 -s 3 -d 1 -p ack -e 40 -c 0 -i 5 -a 0 -x {4.0 0.0 0 ------- null}
h -t 1.0350608 -s 3 -d 1 -p ack -e 40 -c 0 -i 5 -a 0 -x {4.0 0.0 -1 ------- null}
r -t 1.03996 -s 1 -d 3 -p cbr -e 1000 -c 0 -i 4 -a 0 -x {2.0 5.0 3 ------- null}
+ -t 1.03996 -s 3 -d 5 -p cbr -e 1000 -c 0 -i 4 -a 0 -x {2.0 5.0 3 ------- null}
- -t 1.03996 -s 3 -d 5 -p cbr -e 1000 -c 0 -i 4 -a 0 -x {2.0 5.0 3 ------- null}
h -t 1.03996 -s 3 -d 5 -p cbr -e 1000 -c 0 -i 4 -a 0 -x {2.0 5.0 -1 ------- null}
+ -t 1.04 -s 2 -d 1 -p cbr -e 1000 -c 0 -i 7 -a 0 -x {2.0 5.0 5 ------- null}
- -t 1.04 -s 2 -d 1 -p cbr -e 1000 -c 0 -i 7 -a 0 -x {2.0 5.0 5 ------- null}
h -t 1.04 -s 2 -d 1 -p cbr -e 1000 -c 0 -i 7 -a 0 -x {2.0 5.0 -1 ------- null}
r -t 1.0400928 -s 3 -d 1 -p ack -e 40 -c 0 -i 5 -a 0 -x {4.0 0.0 0 ------- null}
+ -t 1.0400928 -s 1 -d 0 -p ack -e 40 -c 0 -i 5 -a 0 -x {4.0 0.0 0 ------- null}
- -t 1.0400928 -s 1 -d 0 -p ack -e 40 -c 0 -i 5 -a 0 -x {4.0 0.0 0 ------- null}
h -t 1.0400928 -s 1 -d 0 -p ack -e 40 -c 0 -i 5 -a 0 -x {4.0 0.0 -1 ------- null}
r -t 1.04216 -s 2 -d 1 -p cbr -e 1000 -c 0 -i 6 -a 0 -x {2.0 5.0 4 ------- null}
+ -t 1.04216 -s 1 -d 3 -p cbr -e 1000 -c 0 -i 6 -a 0 -x {2.0 5.0 4 ------- null}
- -t 1.04216 -s 1 -d 3 -p cbr -e 1000 -c 0 -i 6 -a 0 -x {2.0 5.0 4 ------- null}
h -t 1.04216 -s 1 -d 3 -p cbr -e 1000 -c 0 -i 6 -a 0 -x {2.0 5.0 -1 ------- null}
r -t 1.04276 -s 3 -d 5 -p cbr -e 1000 -c 0 -i 4 -a 0 -x {2.0 5.0 3 ------- null}
r -t 1.04796 -s 1 -d 3 -p cbr -e 1000 -c 0 -i 6 -a 0 -x {2.0 5.0 4 ------- null}
+ -t 1.04796 -s 3 -d 5 -p cbr -e 1000 -c 0 -i 6 -a 0 -x {2.0 5.0 4 ------- null}
- -t 1.04796 -s 3 -d 5 -p cbr -e 1000 -c 0 -i 6 -a 0 -x {2.0 5.0 4 ------- null}
h -t 1.04796 -s 3 -d 5 -p cbr -e 1000 -c 0 -i 6 -a 0 -x {2.0 5.0 -1 ------- null}
+ -t 1.048 -s 2 -d 1 -p cbr -e 1000 -c 0 -i 8 -a 0 -x {2.0 5.0 6 ------- null}
- -t 1.048 -s 2 -d 1 -p cbr -e 1000 -c 0 -i 8 -a 0 -x {2.0 5.0 6 ------- null}
h -t 1.048 -s 2 -d 1 -p cbr -e 1000 -c 0 -i 8 -a 0 -x {2.0 5.0 -1 ------- null}
r -t 1.050096 -s 1 -d 0 -p ack -e 40 -c 0 -i 5 -a 0 -x {4.0 0.0 0 ------- null}
+ -t 1.050096 -s 0 -d 1 -p tcp -e 1540 -c 0 -i 9 -a 0 -x {0.0 4.0 1 ------- null}
- -t 1.050096 -s 0 -d 1 -p tcp -e 1540 -c 0 -i 9 -a 0 -x {0.0 4.0 1 ------- null}
h -t 1.050096 -s 0 -d 1 -p tcp -e 1540 -c 0 -i 9 -a 0 -x {0.0 4.0 -1 ------- null}
+ -t 1.050096 -s 0 -d 1 -p tcp -e 1540 -c 0 -i 10 -a 0 -x {0.0 4.0 2 ------- null}
r -t 1.05016 -s 2 -d 1 -p cbr -e 1000 -c 0 -i 7 -a 0 -x {2.0 5.0 5 ------- null}
+ -t 1.05016 -s 1 -d 3 -p cbr -e 1000 -c 0 -i 7 -a 0 -x {2.0 5.0 5 ------- null}
- -t 1.05016 -s 1 -d 3 -p cbr -e 1000 -c 0 -i 7 -a 0 -x {2.0 5.0 5 ------- null}
h -t 1.05016 -s 1 -d 3 -p cbr -e 1000 -c 0 -i 7 -a 0 -x {2.0 5.0 -1 ------- null}
- -t 1.0502192 -s 0 -d 1 -p tcp -e 1540 -c 0 -i 10 -a 0 -x {0.0 4.0 2 ------- null}
h -t 1.0502192 -s 0 -d 1 -p tcp -e 1540 -c 0 -i 10 -a 0 -x {0.0 4.0 -1 ------- null}
r -t 1.05076 -s 3 -d 5 -p cbr -e 1000 -c 0 -i 6 -a 0 -x {2.0 5.0 4 ------- null}
r -t 1.05596 -s 1 -d 3 -p cbr -e 1000 -c 0 -i 7 -a 0 -x {2.0 5.0 5 ------- null}
+ -t 1.05596 -s 3 -d 5 -p cbr -e 1000 -c 0 -i 7 -a 0 -x {2.0 5.0 5 ------- null}
- -t 1.05596 -s 3 -d 5 -p cbr -e 1000 -c 0 -i 7 -a 0 -x {2.0 5.0 5 ------- null}
h -t 1.05596 -s 3 -d 5 -p cbr -e 1000 -c 0 -i 7 -a 0 -x {2.0 5.0 -1 ------- null}
+ -t 1.056 -s 2 -d 1 -p cbr -e 1000 -c 0 -i 11 -a 0 -x {2.0 5.0 7 ------- null}
- -t 1.056 -s 2 -d 1 -p cbr -e 1000 -c 0 -i 11 -a 0 -x {2.0 5.0 7 ------- null}
h -t 1.056 -s 2 -d 1 -p cbr -e 1000 -c 0 -i 11 -a 0 -x {2.0 5.0 -1 ------- null}
r -t 1.05816 -s 2 -d 1 -p cbr -e 1000 -c 0 -i 8 -a 0 -x {2.0 5.0 6 ------- null}
+ -t 1.05816 -s 1 -d 3 -p cbr -e 1000 -c 0 -i 8 -a 0 -x {2.0 5.0 6 ------- null}
- -t 1.05816 -s 1 -d 3 -p cbr -e 1000 -c 0 -i 8 -a 0 -x {2.0 5.0 6 ------- null}
h -t 1.05816 -s 1 -d 3 -p cbr -e 1000 -c 0 -i 8 -a 0 -x {2.0 5.0 -1 ------- null}
r -t 1.05876 -s 3 -d 5 -p cbr -e 1000 -c 0 -i 7 -a 0 -x {2.0 5.0 5 ------- null}
r -t 1.0602192 -s 0 -d 1 -p tcp -e 1540 -c 0 -i 9 -a 0 -x {0.0 4.0 1 ------- null}
+ -t 1.0602192 -s 1 -d 3 -p tcp -e 1540 -c 0 -i 9 -a 0 -x {0.0 4.0 1 ------- null}
- -t 1.0602192 -s 1 -d 3 -p tcp -e 1540 -c 0 -i 9 -a 0 -x {0.0 4.0 1 ------- null}
h -t 1.0602192 -s 1 -d 3 -p tcp -e 1540 -c 0 -i 9 -a 0 -x {0.0 4.0 -1 ------- null}
r -t 1.0603424 -s 0 -d 1 -p tcp -e 1540 -c 0 -i 10 -a 0 -x {0.0 4.0 2 ------- null}
+ -t 1.0603424 -s 1 -d 3 -p tcp -e 1540 -c 0 -i 10 -a 0 -x {0.0 4.0 2 ------- null}
- -t 1.0614512 -s 1 -d 3 -p tcp -e 1540 -c 0 -i 10 -a 0 -x {0.0 4.0 2 ------- null}
h -t 1.0614512 -s 1 -d 3 -p tcp -e 1540 -c 0 -i 10 -a 0 -x {0.0 4.0 -1 ------- null}
r -t 1.06396 -s 1 -d 3 -p cbr -e 1000 -c 0 -i 8 -a 0 -x {2.0 5.0 6 ------- null}
+ -t 1.06396 -s 3 -d 5 -p cbr -e 1000 -c 0 -i 8 -a 0 -x {2.0 5.0 6 ------- null}
- -t 1.06396 -s 3 -d 5 -p cbr -e 1000 -c 0 -i 8 -a 0 -x {2.0 5.0 6 ------- null}
h -t 1.06396 -s 3 -d 5 -p cbr -e 1000 -c 0 -i 8 -a 0 -x {2.0 5.0 -1 ------- null}
+ -t 1.064 -s 2 -d 1 -p cbr -e 1000 -c 0 -i 12 -a 0 -x {2.0 5.0 8 ------- null}
- -t 1.064 -s 2 -d 1 -p cbr -e 1000 -c 0 -i 12 -a 0 -x {2.0 5.0 8 ------- null}
h -t 1.064 -s 2 -d 1 -p cbr -e 1000 -c 0 -i 12 -a 0 -x {2.0 5.0 -1 ------- null}
r -t 1.06616 -s 2 -d 1 -p cbr -e 1000 -c 0 -i 11 -a 0 -x {2.0 5.0 7 ------- null}
+ -t 1.06616 -s 1 -d 3 -p cbr -e 1000 -c 0 -i 11 -a 0 -x {2.0 5.0 7 ------- null}
- -t 1.06616 -s 1 -d 3 -p cbr -e 1000 -c 0 -i 11 -a 0 -x {2.0 5.0 7 ------- null}
h -t 1.06616 -s 1 -d 3 -p cbr -e 1000 -c 0 -i 11 -a 0 -x {2.0 5.0 -1 ------- null}
r -t 1.0664512 -s 1 -d 3 -p tcp -e 1540 -c 0 -i 9 -a 0 -x {0.0 4.0 1 ------- null}
+ -t 1.0664512 -s 3 -d 4 -p tcp -e 1540 -c 0 -i 9 -a 0 -x {0.0 4.0 1 ------- null}
- -t 1.0664512 -s 3 -d 4 -p tcp -e 1540 -c 0 -i 9 -a 0 -x {0.0 4.0 1 ------- null}
h -t 1.0664512 -s 3 -d 4 -p tcp -e 1540 -c 0 -i 9 -a 0 -x {0.0 4.0 -1 ------- null}
r -t 1.06676 -s 3 -d 5 -p cbr -e 1000 -c 0 -i 8 -a 0 -x {2.0 5.0 6 ------- null}
r -t 1.0676832 -s 1 -d 3 -p tcp -e 1540 -c 0 -i 10 -a 0 -x {0.0 4.0 2 ------- null}
+ -t 1.0676832 -s 3 -d 4 -p tcp -e 1540 -c 0 -i 10 -a 0 -x {0.0 4.0 2 ------- null}
- -t 1.0676832 -s 3 -d 4 -p tcp -e 1540 -c 0 -i 10 -a 0 -x {0.0 4.0 2 ------- null}
h -t 1.0676832 -s 3 -d 4 -p tcp -e 1540 -c 0 -i 10 -a 0 -x {0.0 4.0 -1 ------- null}
r -t 1.07196 -s 1 -d 3 -p cbr -e 1000 -c 0 -i 11 -a 0 -x {2.0 5.0 7 ------- null}
+ -t 1.07196 -s 3 -d 5 -p cbr -e 1000 -c 0 -i 11 -a 0 -x {2.0 5.0 7 ------- null}
- -t 1.07196 -s 3 -d 5 -p cbr -e 1000 -c 0 -i 11 -a 0 -x {2.0 5.0 7 ------- null}
h -t 1.07196 -s 3 -d 5 -p cbr -e 1000 -c 0 -i 11 -a 0 -x {2.0 5.0 -1 ------- null}
+ -t 1.072 -s 2 -d 1 -p cbr -e 1000 -c 0 -i 13 -a 0 -x {2.0 5.0 9 ------- null}
- -t 1.072 -s 2 -d 1 -p cbr -e 1000 -c 0 -i 13 -a 0 -x {2.0 5.0 9 ------- null}
h -t 1.072 -s 2 -d 1 -p cbr -e 1000 -c 0 -i 13 -a 0 -x {2.0 5.0 -1 ------- null}
r -t 1.07416 -s 2 -d 1 -p cbr -e 1000 -c 0 -i 12 -a 0 -x {2.0 5.0 8 ------- null}
+ -t 1.07416 -s 1 -d 3 -p cbr -e 1000 -c 0 -i 12 -a 0 -x {2.0 5.0 8 ------- null}
- -t 1.07416 -s 1 -d 3 -p cbr -e 1000 -c 0 -i 12 -a 0 -x {2.0 5.0 8 ------- null}
h -t 1.07416 -s 1 -d 3 -p cbr -e 1000 -c 0 -i 12 -a 0 -x {2.0 5.0 -1 ------- null}
r -t 1.07476 -s 3 -d 5 -p cbr -e 1000 -c 0 -i 11 -a 0 -x {2.0 5.0 7 ------- null}
r -t 1.076944 -s 3 -d 4 -p tcp -e 1540 -c 0 -i 9 -a 0 -x {0.0 4.0 1 ------- null}
+ -t 1.076944 -s 4 -d 3 -p ack -e 40 -c 0 -i 14 -a 0 -x {4.0 0.0 1 ------- null}
- -t 1.076944 -s 4 -d 3 -p ack -e 40 -c 0 -i 14 -a 0 -x {4.0 0.0 1 ------- null}
h -t 1.076944 -s 4 -d 3 -p ack -e 40 -c 0 -i 14 -a 0 -x {4.0 0.0 -1 ------- null}
r -t 1.078176 -s 3 -d 4 -p tcp -e 1540 -c 0 -i 10 -a 0 -x {0.0 4.0 2 ------- null}
+ -t 1.078176 -s 4 -d 3 -p ack -e 40 -c 0 -i 15 -a 0 -x {4.0 0.0 2 ------- null}
- -t 1.078176 -s 4 -d 3 -p ack -e 40 -c 0 -i 15 -a 0 -x {4.0 0.0 2 ------- null}
h -t 1.078176 -s 4 -d 3 -p ack -e 40 -c 0 -i 15 -a 0 -x {4.0 0.0 -1 ------- null}
r -t 1.07996 -s 1 -d 3 -p cbr -e 1000 -c 0 -i 12 -a 0 -x {2.0 5.0 8 ------- null}
+ -t 1.07996 -s 3 -d 5 -p cbr -e 1000 -c 0 -i 12 -a 0 -x {2.0 5.0 8 ------- null}
- -t 1.07996 -s 3 -d 5 -p cbr -e 1000 -c 0 -i 12 -a 0 -x {2.0 5.0 8 ------- null}
h -t 1.07996 -s 3 -d 5 -p cbr -e 1000 -c 0 -i 12 -a 0 -x {2.0 5.0 -1 ------- null}
+ -t 1.08 -s 2 -d 1 -p cbr -e 1000 -c 0 -i 16 -a 0 -x {2.0 5.0 10 ------- null}
- -t 1.08 -s 2 -d 1 -p cbr -e 1000 -c 0 -i 16 -a 0 -x {2.0 5.0 10 ------- null}
h -t 1.08 -s 2 -d 1 -p cbr -e 1000 -c 0 -i 16 -a 0 -x {2.0 5.0 -1 ------- null}
r -t 1.08216 -s 2 -d 1 -p cbr -e 1000 -c 0 -i 13 -a 0 -x {2.0 5.0 9 ------- null}
+ -t 1.08216 -s 1 -d 3 -p cbr -e 1000 -c 0 -i 13 -a 0 -x {2.0 5.0 9 ------- null}
- -t 1.08216 -s 1 -d 3 -p cbr -e 1000 -c 0 -i 13 -a 0 -x {2.0 5.0 9 ------- null}
h -t 1.08216 -s 1 -d 3 -p cbr -e 1000 -c 0 -i 13 -a 0 -x {2.0 5.0 -1 ------- null}
r -t 1.08276 -s 3 -d 5 -p cbr -e 1000 -c 0 -i 12 -a 0 -x {2.0 5.0 8 ------- null}
r -t 1.0869568 -s 4 -d 3 -p ack -e 40 -c 0 -i 14 -a 0 -x {4.0 0.0 1 ------- null}
+ -t 1.0869568 -s 3 -d 1 -p ack -e 40 -c 0 -i 14 -a 0 -x {4.0 0.0 1 ------- null}
- -t 1.0869568 -s 3 -d 1 -p ack -e 40 -c 0 -i 14 -a 0 -x {4.0 0.0 1 ------- null}
h -t 1.0869568 -s 3 -d 1 -p ack -e 40 -c 0 -i 14 -a 0 -x {4.0 0.0 -1 ------- null}
r -t 1.08796 -s 1 -d 3 -p cbr -e 1000 -c 0 -i 13 -a 0 -x {2.0 5.0 9 ------- null}
+ -t 1.08796 -s 3 -d 5 -p cbr -e 1000 -c 0 -i 13 -a 0 -x {2.0 5.0 9 ------- null}
- -t 1.08796 -s 3 -d 5 -p cbr -e 1000 -c 0 -i 13 -a 0 -x {2.0 5.0 9 ------- null}
h -t 1.08796 -s 3 -d 5 -p cbr -e 1000 -c 0 -i 13 -a 0 -x {2.0 5.0 -1 ------- null}
+ -t 1.088 -s 2 -d 1 -p cbr -e 1000 -c 0 -i 17 -a 0 -x {2.0 5.0 11 ------- null}
- -t 1.088 -s 2 -d 1 -p cbr -e 1000 -c 0 -i 17 -a 0 -x {2.0 5.0 11 ------- null}
h -t 1.088 -s 2 -d 1 -p cbr -e 1000 -c 0 -i 17 -a 0 -x {2.0 5.0 -1 ------- null}
r -t 1.0881888 -s 4 -d 3 -p ack -e 40 -c 0 -i 15 -a 0 -x {4.0 0.0 2 ------- null}
+ -t 1.0881888 -s 3 -d 1 -p ack -e 40 -c 0 -i 15 -a 0 -x {4.0 0.0 2 ------- null}
- -t 1.0881888 -s 3 -d 1 -p ack -e 40 -c 0 -i 15 -a 0 -x {4.0 0.0 2 ------- null}
h -t 1.0881888 -s 3 -d 1 -p ack -e 40 -c 0 -i 15 -a 0 -x {4.0 0.0 -1 ------- null}
r -t 1.09016 -s 2 -d 1 -p cbr -e 1000 -c 0 -i 16 -a 0 -x {2.0 5.0 10 ------- null}
+ -t 1.09016 -s 1 -d 3 -p cbr -e 1000 -c 0 -i 16 -a 0 -x {2.0 5.0 10 ------- null}
- -t 1.09016 -s 1 -d 3 -p cbr -e 1000 -c 0 -i 16 -a 0 -x {2.0 5.0 10 ------- null}
h -t 1.09016 -s 1 -d 3 -p cbr -e 1000 -c 0 -i 16 -a 0 -x {2.0 5.0 -1 ------- null}
r -t 1.09076 -s 3 -d 5 -p cbr -e 1000 -c 0 -i 13 -a 0 -x {2.0 5.0 9 ------- null}
r -t 1.0919888 -s 3 -d 1 -p ack -e 40 -c 0 -i 14 -a 0 -x {4.0 0.0 1 ------- null}
+ -t 1.0919888 -s 1 -d 0 -p ack -e 40 -c 0 -i 14 -a 0 -x {4.0 0.0 1 ------- null}
- -t 1.0919888 -s 1 -d 0 -p ack -e 40 -c 0 -i 14 -a 0 -x {4.0 0.0 1 ------- null}
h -t 1.0919888 -s 1 -d 0 -p ack -e 40 -c 0 -i 14 -a 0 -x {4.0 0.0 -1 ------- null}
r -t 1.0932208 -s 3 -d 1 -p ack -e 40 -c 0 -i 15 -a 0 -x {4.0 0.0 2 ------- null}
+ -t 1.0932208 -s 1 -d 0 -p ack -e 40 -c 0 -i 15 -a 0 -x {4.0 0.0 2 ------- null}
- -t 1.0932208 -s 1 -d 0 -p ack -e 40 -c 0 -i 15 -a 0 -x {4.0 0.0 2 ------- null}
h -t 1.0932208 -s 1 -d 0 -p ack -e 40 -c 0 -i 15 -a 0 -x {4.0 0.0 -1 ------- null}
r -t 1.09596 -s 1 -d 3 -p cbr -e 1000 -c 0 -i 16 -a 0 -x {2.0 5.0 10 ------- null}
+ -t 1.09596 -s 3 -d 5 -p cbr -e 1000 -c 0 -i 16 -a 0 -x {2.0 5.0 10 ------- null}
- -t 1.09596 -s 3 -d 5 -p cbr -e 1000 -c 0 -i 16 -a 0 -x {2.0 5.0 10 ------- null}
h -t 1.09596 -s 3 -d 5 -p cbr -e 1000 -c 0 -i 16 -a 0 -x {2.0 5.0 -1 ------- null}
+ -t 1.096 -s 2 -d 1 -p cbr -e 1000 -c 0 -i 18 -a 0 -x {2.0 5.0 12 ------- null}
- -t 1.096 -s 2 -d 1 -p cbr -e 1000 -c 0 -i 18 -a 0 -x {2.0 5.0 12 ------- null}
h -t 1.096 -s 2 -d 1 -p cbr -e 1000 -c 0 -i 18 -a 0 -x {2.0 5.0 -1 ------- null}
r -t 1.09816 -s 2 -d 1 -p cbr -e 1000 -c 0 -i 17 -a 0 -x {2.0 5.0 11 ------- null}
+ -t 1.09816 -s 1 -d 3 -p cbr -e 1000 -c 0 -i 17 -a 0 -x {2.0 5.0 11 ------- null}
- -t 1.09816 -s 1 -d 3 -p cbr -e 1000 -c 0 -i 17 -a 0 -x {2.0 5.0 11 ------- null}
h -t 1.09816 -s 1 -d 3 -p cbr -e 1000 -c 0 -i 17 -a 0 -x {2.0 5.0 -1 ------- null}
r -t 1.09876 -s 3 -d 5 -p cbr -e 1000 -c 0 -i 16 -a 0 -x {2.0 5.0 10 ------- null}
r -t 1.101992 -s 1 -d 0 -p ack -e 40 -c 0 -i 14 -a 0 -x {4.0 0.0 1 ------- null}
+ -t 1.101992 -s 0 -d 1 -p tcp -e 1540 -c 0 -i 19 -a 0 -x {0.0 4.0 3 ------- null}
- -t 1.101992 -s 0 -d 1 -p tcp -e 1540 -c 0 -i 19 -a 0 -x {0.0 4.0 3 ------- null}
h -t 1.101992 -s 0 -d 1 -p tcp -e 1540 -c 0 -i 19 -a 0 -x {0.0 4.0 -1 ------- null}
+ -t 1.101992 -s 0 -d 1 -p tcp -e 1540 -c 0 -i 20 -a 0 -x {0.0 4.0 4 ------- null}
- -t 1.1021152 -s 0 -d 1 -p tcp -e 1540 -c 0 -i 20 -a 0 -x {0.0 4.0 4 ------- null}
h -t 1.1021152 -s 0 -d 1 -p tcp -e 1540 -c 0 -i 20 -a 0 -x {0.0 4.0 -1 ------- null}
r -t 1.103224 -s 1 -d 0 -p ack -e 40 -c 0 -i 15 -a 0 -x {4.0 0.0 2 ------- null}
+ -t 1.103224 -s 0 -d 1 -p tcp -e 1540 -c 0 -i 21 -a 0 -x {0.0 4.0 5 ------- null}
- -t 1.103224 -s 0 -d 1 -p tcp -e 1540 -c 0 -i 21 -a 0 -x {0.0 4.0 5 ------- null}
h -t 1.103224 -s 0 -d 1 -p tcp -e 1540 -c 0 -i 21 -a 0 -x {0.0 4.0 -1 ------- null}
+ -t 1.103224 -s 0 -d 1 -p tcp -e 1540 -c 0 -i 22 -a 0 -x {0.0 4.0 6 ------- null}
- -t 1.1033472 -s 0 -d 1 -p tcp -e 1540 -c 0 -i 22 -a 0 -x {0.0 4.0 6 ------- null}
h -t 1.1033472 -s 0 -d 1 -p tcp -e 1540 -c 0 -i 22 -a 0 -x {0.0 4.0 -1 ------- null}
r -t 1.10396 -s 1 -d 3 -p cbr -e 1000 -c 0 -i 17 -a 0 -x {2.0 5.0 11 ------- null}
+ -t 1.10396 -s 3 -d 5 -p cbr -e 1000 -c 0 -i 17 -a 0 -x {2.0 5.0 11 ------- null}
- -t 1.10396 -s 3 -d 5 -p cbr -e 1000 -c 0 -i 17 -a 0 -x {2.0 5.0 11 ------- null}
h -t 1.10396 -s 3 -d 5 -p cbr -e 1000 -c 0 -i 17 -a 0 -x {2.0 5.0 -1 ------- null}
+ -t 1.104 -s 2 -d 1 -p cbr -e 1000 -c 0 -i 23 -a 0 -x {2.0 5.0 13 ------- null}
- -t 1.104 -s 2 -d 1 -p cbr -e 1000 -c 0 -i 23 -a 0 -x {2.0 5.0 13 ------- null}
h -t 1.104 -s 2 -d 1 -p cbr -e 1000 -c 0 -i 23 -a 0 -x {2.0 5.0 -1 ------- null}
r -t 1.10616 -s 2 -d 1 -p cbr -e 1000 -c 0 -i 18 -a 0 -x {2.0 5.0 12 ------- null}
+ -t 1.10616 -s 1 -d 3 -p cbr -e 1000 -c 0 -i 18 -a 0 -x {2.0 5.0 12 ------- null}
- -t 1.10616 -s 1 -d 3 -p cbr -e 1000 -c 0 -i 18 -a 0 -x {2.0 5.0 12 ------- null}
h -t 1.10616 -s 1 -d 3 -p cbr -e 1000 -c 0 -i 18 -a 0 -x {2.0 5.0 -1 ------- null}
r -t 1.10676 -s 3 -d 5 -p cbr -e 1000 -c 0 -i 17 -a 0 -x {2.0 5.0 11 ------- null}
r -t 1.11196 -s 1 -d 3 -p cbr -e 1000 -c 0 -i 18 -a 0 -x {2.0 5.0 12 ------- null}
+ -t 1.11196 -s 3 -d 5 -p cbr -e 1000 -c 0 -i 18 -a 0 -x {2.0 5.0 12 ------- null}
- -t 1.11196 -s 3 -d 5 -p cbr -e 1000 -c 0 -i 18 -a 0 -x {2.0 5.0 12 ------- null}
h -t 1.11196 -s 3 -d 5 -p cbr -e 1000 -c 0 -i 18 -a 0 -x {2.0 5.0 -1 ------- null}
+ -t 1.112 -s 2 -d 1 -p cbr -e 1000 -c 0 -i 24 -a 0 -x {2.0 5.0 14 ------- null}
- -t 1.112 -s 2 -d 1 -p cbr -e 1000 -c 0 -i 24 -a 0 -x {2.0 5.0 14 ------- null}
h -t 1.112 -s 2 -d 1 -p cbr -e 1000 -c 0 -i 24 -a 0 -x {2.0 5.0 -1 ------- null}
r -t 1.1121152 -s 0 -d 1 -p tcp -e 1540 -c 0 -i 19 -a 0 -x {0.0 4.0 3 ------- null}
+ -t 1.1121152 -s 1 -d 3 -p tcp -e 1540 -c 0 -i 19 -a 0 -x {0.0 4.0 3 ------- null}
- -t 1.1121152 -s 1 -d 3 -p tcp -e 1540 -c 0 -i 19 -a 0 -x {0.0 4.0 3 ------- null}
h -t 1.1121152 -s 1 -d 3 -p tcp -e 1540 -c 0 -i 19 -a 0 -x {0.0 4.0 -1 ------- null}
r -t 1.1122384 -s 0 -d 1 -p tcp -e 1540 -c 0 -i 20 -a 0 -x {0.0 4.0 4 ------- null}
+ -t 1.1122384 -s 1 -d 3 -p tcp -e 1540 -c 0 -i 20 -a 0 -x {0.0 4.0 4 ------- null}
r -t 1.1133472 -s 0 -d 1 -p tcp -e 1540 -c 0 -i 21 -a 0 -x {0.0 4.0 5 ------- null}
+ -t 1.1133472 -s 1 -d 3 -p tcp -e 1540 -c 0 -i 21 -a 0 -x {0.0 4.0 5 ------- null}
- -t 1.1133472 -s 1 -d 3 -p tcp -e 1540 -c 0 -i 20 -a 0 -x {0.0 4.0 4 ------- null}
h -t 1.1133472 -s 1 -d 3 -p tcp -e 1540 -c 0 -i 20 -a 0 -x {0.0 4.0 -1 ------- null}
r -t 1.1134704 -s 0 -d 1 -p tcp -e 1540 -c 0 -i 22 -a 0 -x {0.0 4.0 6 ------- null}
+ -t 1.1134704 -s 1 -d 3 -p tcp -e 1540 -c 0 -i 22 -a 0 -x {0.0 4.0 6 ------- null}
r -t 1.11416 -s 2 -d 1 -p cbr -e 1000 -c 0 -i 23 -a 0 -x {2.0 5.0 13 ------- null}
+ -t 1.11416 -s 1 -d 3 -p cbr -e 1000 -c 0 -i 23 -a 0 -x {2.0 5.0 13 ------- null}
- -t 1.1145792 -s 1 -d 3 -p tcp -e 1540 -c 0 -i 21 -a 0 -x {0.0 4.0 5 ------- null}
h -t 1.1145792 -s 1 -d 3 -p tcp -e 1540 -c 0 -i 21 -a 0 -x {0.0 4.0 -1 ------- null}
r -t 1.11476 -s 3 -d 5 -p cbr -e 1000 -c 0 -i 18 -a 0 -x {2.0 5.0 12 ------- null}
- -t 1.1158112 -s 1 -d 3 -p tcp -e 1540 -c 0 -i 22 -a 0 -x {0.0 4.0 6 ------- null}
h -t 1.1158112 -s 1 -d 3 -p tcp -e 1540 -c 0 -i 22 -a 0 -x {0.0 4.0 -1 ------- null}
- -t 1.1170432 -s 1 -d 3 -p cbr -e 1000 -c 0 -i 23 -a 0 -x {2.0 5.0 13 ------- null}
h -t 1.1170432 -s 1 -d 3 -p cbr -e 1000 -c 0 -i 23 -a 0 -x {2.0 5.0 -1 ------- null}
r -t 1.1183472 -s 1 -d 3 -p tcp -e 1540 -c 0 -i 19 -a 0 -x {0.0 4.0 3 ------- null}
+ -t 1.1183472 -s 3 -d 4 -p tcp -e 1540 -c 0 -i 19 -a 0 -x {0.0 4.0 3 ------- null}
- -t 1.1183472 -s 3 -d 4 -p tcp -e 1540 -c 0 -i 19 -a 0 -x {0.0 4.0 3 ------- null}
h -t 1.1183472 -s 3 -d 4 -p tcp -e 1540 -c 0 -i 19 -a 0 -x {0.0 4.0 -1 ------- null}
r -t 1.1195792 -s 1 -d 3 -p tcp -e 1540 -c 0 -i 20 -a 0 -x {0.0 4.0 4 ------- null}
+ -t 1.1195792 -s 3 -d 4 -p tcp -e 1540 -c 0 -i 20 -a 0 -x {0.0 4.0 4 ------- null}
- -t 1.1195792 -s 3 -d 4 -p tcp -e 1540 -c 0 -i 20 -a 0 -x {0.0 4.0 4 ------- null}
h -t 1.1195792 -s 3 -d 4 -p tcp -e 1540 -c 0 -i 20 -a 0 -x {0.0 4.0 -1 ------- null}
+ -t 1.12 -s 2 -d 1 -p cbr -e 1000 -c 0 -i 25 -a 0 -x {2.0 5.0 15 ------- null}
- -t 1.12 -s 2 -d 1 -p cbr -e 1000 -c 0 -i 25 -a 0 -x {2.0 5.0 15 ------- null}
h -t 1.12 -s 2 -d 1 -p cbr -e 1000 -c 0 -i 25 -a 0 -x {2.0 5.0 -1 ------- null}
r -t 1.1208112 -s 1 -d 3 -p tcp -e 1540 -c 0 -i 21 -a 0 -x {0.0 4.0 5 ------- null}
+ -t 1.1208112 -s 3 -d 4 -p tcp -e 1540 -c 0 -i 21 -a 0 -x {0.0 4.0 5 ------- null}
- -t 1.1208112 -s 3 -d 4 -p tcp -e 1540 -c 0 -i 21 -a 0 -x {0.0 4.0 5 ------- null}
h -t 1.1208112 -s 3 -d 4 -p tcp -e 1540 -c 0 -i 21 -a 0 -x {0.0 4.0 -1 ------- null}
r -t 1.1220432 -s 1 -d 3 -p tcp -e 1540 -c 0 -i 22 -a 0 -x {0.0 4.0 6 ------- null}
+ -t 1.1220432 -s 3 -d 4 -p tcp -e 1540 -c 0 -i 22 -a 0 -x {0.0 4.0 6 ------- null}
- -t 1.1220432 -s 3 -d 4 -p tcp -e 1540 -c 0 -i 22 -a 0 -x {0.0 4.0 6 ------- null}
h -t 1.1220432 -s 3 -d 4 -p tcp -e 1540 -c 0 -i 22 -a 0 -x {0.0 4.0 -1 ------- null}
r -t 1.12216 -s 2 -d 1 -p cbr -e 1000 -c 0 -i 24 -a 0 -x {2.0 5.0 14 ------- null}
+ -t 1.12216 -s 1 -d 3 -p cbr -e 1000 -c 0 -i 24 -a 0 -x {2.0 5.0 14 ------- null}
- -t 1.12216 -s 1 -d 3 -p cbr -e 1000 -c 0 -i 24 -a 0 -x {2.0 5.0 14 ------- null}
h -t 1.12216 -s 1 -d 3 -p cbr -e 1000 -c 0 -i 24 -a 0 -x {2.0 5.0 -1 ------- null}
r -t 1.1228432 -s 1 -d 3 -p cbr -e 1000 -c 0 -i 23 -a 0 -x {2.0 5.0 13 ------- null}
+ -t 1.1228432 -s 3 -d 5 -p cbr -e 1000 -c 0 -i 23 -a 0 -x {2.0 5.0 13 ------- null}
- -t 1.1228432 -s 3 -d 5 -p cbr -e 1000 -c 0 -i 23 -a 0 -x {2.0 5.0 13 ------- null}
h -t 1.1228432 -s 3 -d 5 -p cbr -e 1000 -c 0 -i 23 -a 0 -x {2.0 5.0 -1 ------- null}
r -t 1.1256432 -s 3 -d 5 -p cbr -e 1000 -c 0 -i 23 -a 0 -x {2.0 5.0 13 ------- null}
r -t 1.12796 -s 1 -d 3 -p cbr -e 1000 -c 0 -i 24 -a 0 -x {2.0 5.0 14 ------- null}
+ -t 1.12796 -s 3 -d 5 -p cbr -e 1000 -c 0 -i 24 -a 0 -x {2.0 5.0 14 ------- null}
- -t 1.12796 -s 3 -d 5 -p cbr -e 1000 -c 0 -i 24 -a 0 -x {2.0 5.0 14 ------- null}
h -t 1.12796 -s 3 -d 5 -p cbr -e 1000 -c 0 -i 24 -a 0 -x {2.0 5.0 -1 ------- null}
+ -t 1.128 -s 2 -d 1 -p cbr -e 1000 -c 0 -i 26 -a 0 -x {2.0 5.0 16 ------- null}
- -t 1.128 -s 2 -d 1 -p cbr -e 1000 -c 0 -i 26 -a 0 -x {2.0 5.0 16 ------- null}
h -t 1.128 -s 2 -d 1 -p cbr -e 1000 -c 0 -i 26 -a 0 -x {2.0 5.0 -1 ------- null}
r -t 1.12884 -s 3 -d 4 -p tcp -e 1540 -c 0 -i 19 -a 0 -x {0.0 4.0 3 ------- null}
+ -t 1.12884 -s 4 -d 3 -p ack -e 40 -c 0 -i 27 -a 0 -x {4.0 0.0 3 ------- null}
- -t 1.12884 -s 4 -d 3 -p ack -e 40 -c 0 -i 27 -a 0 -x {4.0 0.0 3 ------- null}
h -t 1.12884 -s 4 -d 3 -p ack -e 40 -c 0 -i 27 -a 0 -x {4.0 0.0 -1 ------- null}
r -t 1.130072 -s 3 -d 4 -p tcp -e 1540 -c 0 -i 20 -a 0 -x {0.0 4.0 4 ------- null}
+ -t 1.130072 -s 4 -d 3 -p ack -e 40 -c 0 -i 28 -a 0 -x {4.0 0.0 4 ------- null}
- -t 1.130072 -s 4 -d 3 -p ack -e 40 -c 0 -i 28 -a 0 -x {4.0 0.0 4 ------- null}
h -t 1.130072 -s 4 -d 3 -p ack -e 40 -c 0 -i 28 -a 0 -x {4.0 0.0 -1 ------- null}
r -t 1.13016 -s 2 -d 1 -p cbr -e 1000 -c 0 -i 25 -a 0 -x {2.0 5.0 15 ------- null}
+ -t 1.13016 -s 1 -d 3 -p cbr -e 1000 -c 0 -i 25 -a 0 -x {2.0 5.0 15 ------- null}
- -t 1.13016 -s 1 -d 3 -p cbr -e 1000 -c 0 -i 25 -a 0 -x {2.0 5.0 15 ------- null}
h -t 1.13016 -s 1 -d 3 -p cbr -e 1000 -c 0 -i 25 -a 0 -x {2.0 5.0 -1 ------- null}
r -t 1.13076 -s 3 -d 5 -p cbr -e 1000 -c 0 -i 24 -a 0 -x {2.0 5.0 14 ------- null}
r -t 1.131304 -s 3 -d 4 -p tcp -e 1540 -c 0 -i 21 -a 0 -x {0.0 4.0 5 ------- null}
+ -t 1.131304 -s 4 -d 3 -p ack -e 40 -c 0 -i 29 -a 0 -x {4.0 0.0 5 ------- null}
- -t 1.131304 -s 4 -d 3 -p ack -e 40 -c 0 -i 29 -a 0 -x {4.0 0.0 5 ------- null}
h -t 1.131304 -s 4 -d 3 -p ack -e 40 -c 0 -i 29 -a 0 -x {4.0 0.0 -1 ------- null}
r -t 1.132536 -s 3 -d 4 -p tcp -e 1540 -c 0 -i 22 -a 0 -x {0.0 4.0 6 ------- null}
+ -t 1.132536 -s 4 -d 3 -p ack -e 40 -c 0 -i 30 -a 0 -x {4.0 0.0 6 ------- null}
- -t 1.132536 -s 4 -d 3 -p ack -e 40 -c 0 -i 30 -a 0 -x {4.0 0.0 6 ------- null}
h -t 1.132536 -s 4 -d 3 -p ack -e 40 -c 0 -i 30 -a 0 -x {4.0 0.0 -1 ------- null}
r -t 1.13596 -s 1 -d 3 -p cbr -e 1000 -c 0 -i 25 -a 0 -x {2.0 5.0 15 ------- null}
+ -t 1.13596 -s 3 -d 5 -p cbr -e 1000 -c 0 -i 25 -a 0 -x {2.0 5.0 15 ------- null}
- -t 1.13596 -s 3 -d 5 -p cbr -e 1000 -c 0 -i 25 -a 0 -x {2.0 5.0 15 ------- null}
h -t 1.13596 -s 3 -d 5 -p cbr -e 1000 -c 0 -i 25 -a 0 -x {2.0 5.0 -1 ------- null}
+ -t 1.136 -s 2 -d 1 -p cbr -e 1000 -c 0 -i 31 -a 0 -x {2.0 5.0 17 ------- null}
- -t 1.136 -s 2 -d 1 -p cbr -e 1000 -c 0 -i 31 -a 0 -x {2.0 5.0 17 ------- null}
h -t 1.136 -s 2 -d 1 -p cbr -e 1000 -c 0 -i 31 -a 0 -x {2.0 5.0 -1 ------- null}
r -t 1.13816 -s 2 -d 1 -p cbr -e 1000 -c 0 -i 26 -a 0 -x {2.0 5.0 16 ------- null}
+ -t 1.13816 -s 1 -d 3 -p cbr -e 1000 -c 0 -i 26 -a 0 -x {2.0 5.0 16 ------- null}
- -t 1.13816 -s 1 -d 3 -p cbr -e 1000 -c 0 -i 26 -a 0 -x {2.0 5.0 16 ------- null}
h -t 1.13816 -s 1 -d 3 -p cbr -e 1000 -c 0 -i 26 -a 0 -x {2.0 5.0 -1 ------- null}
r -t 1.13876 -s 3 -d 5 -p cbr -e 1000 -c 0 -i 25 -a 0 -x {2.0 5.0 15 ------- null}
r -t 1.1388528 -s 4 -d 3 -p ack -e 40 -c 0 -i 27 -a 0 -x {4.0 0.0 3 ------- null}
+ -t 1.1388528 -s 3 -d 1 -p ack -e 40 -c 0 -i 27 -a 0 -x {4.0 0.0 3 ------- null}
- -t 1.1388528 -s 3 -d 1 -p ack -e 40 -c 0 -i 27 -a 0 -x {4.0 0.0 3 ------- null}
h -t 1.1388528 -s 3 -d 1 -p ack -e 40 -c 0 -i 27 -a 0 -x {4.0 0.0 -1 ------- null}
r -t 1.1400848 -s 4 -d 3 -p ack -e 40 -c 0 -i 28 -a 0 -x {4.0 0.0 4 ------- null}
+ -t 1.1400848 -s 3 -d 1 -p ack -e 40 -c 0 -i 28 -a 0 -x {4.0 0.0 4 ------- null}
- -t 1.1400848 -s 3 -d 1 -p ack -e 40 -c 0 -i 28 -a 0 -x {4.0 0.0 4 ------- null}
h -t 1.1400848 -s 3 -d 1 -p ack -e 40 -c 0 -i 28 -a 0 -x {4.0 0.0 -1 ------- null}
r -t 1.1413168 -s 4 -d 3 -p ack -e 40 -c 0 -i 29 -a 0 -x {4.0 0.0 5 ------- null}
+ -t 1.1413168 -s 3 -d 1 -p ack -e 40 -c 0 -i 29 -a 0 -x {4.0 0.0 5 ------- null}
- -t 1.1413168 -s 3 -d 1 -p ack -e 40 -c 0 -i 29 -a 0 -x {4.0 0.0 5 ------- null}
h -t 1.1413168 -s 3 -d 1 -p ack -e 40 -c 0 -i 29 -a 0 -x {4.0 0.0 -1 ------- null}
r -t 1.1425488 -s 4 -d 3 -p ack -e 40 -c 0 -i 30 -a 0 -x {4.0 0.0 6 ------- null}
+ -t 1.1425488 -s 3 -d 1 -p ack -e 40 -c 0 -i 30 -a 0 -x {4.0 0.0 6 ------- null}
- -t 1.1425488 -s 3 -d 1 -p ack -e 40 -c 0 -i 30 -a 0 -x {4.0 0.0 6 ------- null}
h -t 1.1425488 -s 3 -d 1 -p ack -e 40 -c 0 -i 30 -a 0 -x {4.0 0.0 -1 ------- null}
r -t 1.1438848 -s 3 -d 1 -p ack -e 40 -c 0 -i 27 -a 0 -x {4.0 0.0 3 ------- null}
+ -t 1.1438848 -s 1 -d 0 -p ack -e 40 -c 0 -i 27 -a 0 -x {4.0 0.0 3 ------- null}
- -t 1.1438848 -s 1 -d 0 -p ack -e 40 -c 0 -i 27 -a 0 -x {4.0 0.0 3 ------- null}
h -t 1.1438848 -s 1 -d 0 -p ack -e 40 -c 0 -i 27 -a 0 -x {4.0 0.0 -1 ------- null}
r -t 1.14396 -s 1 -d 3 -p cbr -e 1000 -c 0 -i 26 -a 0 -x {2.0 5.0 16 ------- null}
+ -t 1.14396 -s 3 -d 5 -p cbr -e 1000 -c 0 -i 26 -a 0 -x {2.0 5.0 16 ------- null}