s -t 0.500000000 -Hs 8 -Hd -2 -Ni 8 -Nx 315.00 -Ny 230.00 -Nz 0.00 -Ne 100.000000 -Nl AGT -Nw --- -Ma 0 -Md 0 -Ms 0 -Mt 0 -Is 8.0 -Id 3.0 -It tcp -Il 40 -If 0 -Ii 0 -Iv 32 -Pn tcp -Ps 0 -Pa 0 -Pf 0 -Po 0 
r -t 0.500000000 -Hs 8 -Hd -2 -Ni 8 -Nx 315.00 -Ny 230.00 -Nz 0.00 -Ne 100.000000 -Nl RTR -Nw --- -Ma 0 -Md 0 -Ms 0 -Mt 0 -Is 8.0 -Id 3.0 -It tcp -Il 40 -If 0 -Ii 0 -Iv 32 -Pn tcp -Ps 0 -Pa 0 -Pf 0 -Po 0 
s -t 0.500000000 -Hs 8 -Hd -2 -Ni 8 -Nx 315.00 -Ny 230.00 -Nz 0.00 -Ne 100.000000 -Nl RTR -Nw --- -Ma 0 -Md 0 -Ms 0 -Mt 0 -Is 8.255 -Id -1.255 -It AODV -Il 48 -If 0 -Ii 0 -Iv 30 -P aodv -Pt 0x2 -Ph 1 -Pb 1 -Pd 3 -Pds 0 -Ps 8 -Pss 4 -Pc REQUEST 
s -t 0.500635000 -Hs 8 -Hd -2 -Ni 8 -Nx 315.00 -Ny 230.00 -Nz 0.00 -Ne 100.000000 -Nl MAC -Nw --- -Ma 0 -Md ffffffff -Ms 8 -Mt 800 -Is 8.255 -Id -1.255 -It AODV -Il 106 -If 0 -Ii 0 -Iv 30 -P aodv -Pt 0x2 -Ph 1 -Pb 1 -Pd 3 -Pds 0 -Ps 8 -Pss 4 -Pc REQUEST 
N -t 0.500636 -n 7 -e 99.699025
N -t 0.500636 -n 0 -e 99.699025
N -t 0.500636 -n 6 -e 99.699025
N -t 0.500636 -n 9 -e 99.699025
N -t 0.500636 -n 1 -e 99.699025
N -t 0.500636 -n 2 -e 99.699025
N -t 0.500636 -n 5 -e 99.699025
N -t 0.500637 -n 3 -e 99.699024
N -t 0.500637 -n 4 -e 99.699024
r -t 0.501483500 -Hs 7 -Hd -2 -Ni 7 -Nx 416.00 -Ny 341.00 -Nz 0.00 -Ne 99.699025 -Nl MAC -Nw --- -Ma 0 -Md ffffffff -Ms 8 -Mt 800 -Is 8.255 -Id -1.255 -It AODV -Il 48 -If 0 -Ii 0 -Iv 30 -P aodv -Pt 0x2 -Ph 1 -Pb 1 -Pd 3 -Pds 0 -Ps 8 -Pss 4 -Pc REQUEST 
r -t 0.501483643 -Hs 0 -Hd -2 -Ni 0 -Nx 260.00 -Ny 415.00 -Nz 0.00 -Ne 99.699025 -Nl MAC -Nw --- -Ma 0 -Md ffffffff -Ms 8 -Mt 800 -Is 8.255 -Id -1.255 -It AODV -Il 48 -If 0 -Ii 0 -Iv 30 -P aodv -Pt 0x2 -Ph 1 -Pb 1 -Pd 3 -Pds 0 -Ps 8 -Pss 4 -Pc REQUEST 
r -t 0.501483671 -Hs 6 -Hd -2 -Ni 6 -Nx 516.00 -Ny 222.00 -Nz 0.00 -Ne 99.699025 -Nl MAC -Nw --- -Ma 0 -Md ffffffff -Ms 8 -Mt 800 -Is 8.255 -Id -1.255 -It AODV -Il 48 -If 0 -Ii 0 -Iv 30 -P aodv -Pt 0x2 -Ph 1 -Pb 1 -Pd 3 -Pds 0 -Ps 8 -Pss 4 -Pc REQUEST 
r -t 0.501483831 -Hs 9 -Hd -2 -Ni 9 -Nx 514.00 -Ny 80.00 -Nz 0.00 -Ne 99.699025 -Nl MAC -Nw --- -Ma 0 -Md ffffffff -Ms 8 -Mt 800 -Is 8.255 -Id -1.255 -It AODV -Il 48 -If 0 -Ii 0 -Iv 30 -P aodv -Pt 0x2 -Ph 1 -Pb 1 -Pd 3 -Pds 0 -Ps 8 -Pss 4 -Pc REQUEST 
r -t 0.501508500 -Hs 7 -Hd -2 -Ni 7 -Nx 416.00 -Ny 341.00 -Nz 0.00 -Ne 99.699025 -Nl RTR -Nw --- -Ma 0 -Md ffffffff -Ms 8 -Mt 800 -Is 8.255 -Id -1.255 -It AODV -Il 48 -If 0 -Ii 0 -Iv 30 -P aodv -Pt 0x2 -Ph 1 -Pb 1 -Pd 3 -Pds 0 -Ps 8 -Pss 4 -Pc REQUEST 
r -t 0.501508643 -Hs 0 -Hd -2 -Ni 0 -Nx 260.00 -Ny 415.00 -Nz 0.00 -Ne 99.699025 -Nl RTR -Nw --- -Ma 0 -Md ffffffff -Ms 8 -Mt 800 -Is 8.255 -Id -1.255 -It AODV -Il 48 -If 0 -Ii 0 -Iv 30 -P aodv -Pt 0x2 -Ph 1 -Pb 1 -Pd 3 -Pds 0 -Ps 8 -Pss 4 -Pc REQUEST 
r -t 0.501508671 -Hs 6 -Hd -2 -Ni 6 -Nx 516.00 -Ny 222.00 -Nz 0.00 -Ne 99.699025 -Nl RTR -Nw --- -Ma 0 -Md ffffffff -Ms 8 -Mt 800 -Is 8.255 -Id -1.255 -It AODV -Il 48 -If 0 -Ii 0 -Iv 30 -P aodv -Pt 0x2 -Ph 1 -Pb 1 -Pd 3 -Pds 0 -Ps 8 -Pss 4 -Pc REQUEST 
r -t 0.501508831 -Hs 9 -Hd -2 -Ni 9 -Nx 514.00 -Ny 80.00 -Nz 0.00 -Ne 99.699025 -Nl RTR -Nw --- -Ma 0 -Md ffffffff -Ms 8 -Mt 800 -Is 8.255 -Id -1.255 -It AODV -Il 48 -If 0 -Ii 0 -Iv 30 -P aodv -Pt 0x2 -Ph 1 -Pb 1 -Pd 3 -Pds 0 -Ps 8 -Pss 4 -Pc REQUEST 
s -t 0.504638288 -Hs 6 -Hd -2 -Ni 6 -Nx 516.00 -Ny 222.00 -Nz 0.00 -Ne 99.699025 -Nl RTR -Nw --- -Ma 0 -Md ffffffff -Ms 8 -Mt 800 -Is 6.255 -Id -1.255 -It AODV -Il 48 -If 0 -Ii 0 -Iv 29 -P aodv -Pt 0x2 -Ph 2 -Pb 1 -Pd 3 -Pds 0 -Ps 8 -Pss 4 -Pc REQUEST 
s -t 0.504953288 -Hs 6 -Hd -2 -Ni 6 -Nx 516.00 -Ny 222.00 -Nz 0.00 -Ne 99.699025 -Nl MAC -Nw --- -Ma 0 -Md ffffffff -Ms 6 -Mt 800 -Is 6.255 -Id -1.255 -It AODV -Il 106 -If 0 -Ii 0 -Iv 29 -P aodv -Pt 0x2 -Ph 2 -Pb 1 -Pd 3 -Pds 0 -Ps 8 -Pss 4 -Pc REQUEST 
N -t 0.504954 -n 9 -e 99.696349
N -t 0.504954 -n 7 -e 99.696349
N -t 0.504954 -n 5 -e 99.696349
N -t 0.504954 -n 2 -e 99.696349
N -t 0.504954 -n 8 -e 99.696180
N -t 0.504954 -n 1 -e 99.696349
N -t 0.504954 -n 0 -e 99.696349
N -t 0.504954 -n 4 -e 99.696349
N -t 0.504954 -n 3 -e 99.696349
r -t 0.505801762 -Hs 9 -Hd -2 -Ni 9 -Nx 514.00 -Ny 80.00 -Nz 0.00 -Ne 99.696349 -Nl MAC -Nw --- -Ma 0 -Md ffffffff -Ms 6 -Mt 800 -Is 6.255 -Id -1.255 -It AODV -Il 48 -If 0 -Ii 0 -Iv 29 -P aodv -Pt 0x2 -Ph 2 -Pb 1 -Pd 3 -Pds 0 -Ps 8 -Pss 4 -Pc REQUEST 
r -t 0.505801806 -Hs 7 -Hd -2 -Ni 7 -Nx 416.00 -Ny 341.00 -Nz 0.00 -Ne 99.696349 -Nl MAC -Nw --- -Ma 0 -Md ffffffff -Ms 6 -Mt 800 -Is 6.255 -Id -1.255 -It AODV -Il 48 -If 0 -Ii 0 -Iv 29 -P aodv -Pt 0x2 -Ph 2 -Pb 1 -Pd 3 -Pds 0 -Ps 8 -Pss 4 -Pc REQUEST 
r -t 0.505801895 -Hs 5 -Hd -2 -Ni 5 -Nx 698.00 -Ny 230.00 -Nz 0.00 -Ne 99.696349 -Nl MAC -Nw --- -Ma 0 -Md ffffffff -Ms 6 -Mt 800 -Is 6.255 -Id -1.255 -It AODV -Il 48 -If 0 -Ii 0 -Iv 29 -P aodv -Pt 0x2 -Ph 2 -Pb 1 -Pd 3 -Pds 0 -Ps 8 -Pss 4 -Pc REQUEST 
r -t 0.505801956 -Hs 2 -Hd -2 -Ni 2 -Nx 582.00 -Ny 411.00 -Nz 0.00 -Ne 99.696349 -Nl MAC -Nw --- -Ma 0 -Md ffffffff -Ms 6 -Mt 800 -Is 6.255 -Id -1.255 -It AODV -Il 48 -If 0 -Ii 0 -Iv 29 -P aodv -Pt 0x2 -Ph 2 -Pb 1 -Pd 3 -Pds 0 -Ps 8 -Pss 4 -Pc REQUEST 
r -t 0.505801959 -Hs 8 -Hd -2 -Ni 8 -Nx 315.00 -Ny 230.00 -Nz 0.00 -Ne 99.696180 -Nl MAC -Nw --- -Ma 0 -Md ffffffff -Ms 6 -Mt 800 -Is 6.255 -Id -1.255 -It AODV -Il 48 -If 0 -Ii 0 -Iv 29 -P aodv -Pt 0x2 -Ph 2 -Pb 1 -Pd 3 -Pds 0 -Ps 8 -Pss 4 -Pc REQUEST 
r -t 0.505826762 -Hs 9 -Hd -2 -Ni 9 -Nx 514.00 -Ny 80.00 -Nz 0.00 -Ne 99.696349 -Nl RTR -Nw --- -Ma 0 -Md ffffffff -Ms 6 -Mt 800 -Is 6.255 -Id -1.255 -It AODV -Il 48 -If 0 -Ii 0 -Iv 29 -P aodv -Pt 0x2 -Ph 2 -Pb 1 -Pd 3 -Pds 0 -Ps 8 -Pss 4 -Pc REQUEST 
r -t 0.505826806 -Hs 7 -Hd -2 -Ni 7 -Nx 416.00 -Ny 341.00 -Nz 0.00 -Ne 99.696349 -Nl RTR -Nw --- -Ma 0 -Md ffffffff -Ms 6 -Mt 800 -Is 6.255 -Id -1.255 -It AODV -Il 48 -If 0 -Ii 0 -Iv 29 -P aodv -Pt 0x2 -Ph 2 -Pb 1 -Pd 3 -Pds 0 -Ps 8 -Pss 4 -Pc REQUEST 
r -t 0.505826895 -Hs 5 -Hd -2 -Ni 5 -Nx 698.00 -Ny 230.00 -Nz 0.00 -Ne 99.696349 -Nl RTR -Nw --- -Ma 0 -Md ffffffff -Ms 6 -Mt 800 -Is 6.255 -Id -1.255 -It AODV -Il 48 -If 0 -Ii 0 -Iv 29 -P aodv -Pt 0x2 -Ph 2 -Pb 1 -Pd 3 -Pds 0 -Ps 8 -Pss 4 -Pc REQUEST 
r -t 0.505826956 -Hs 2 -Hd -2 -Ni 2 -Nx 582.00 -Ny 411.00 -Nz 0.00 -Ne 99.696349 -Nl RTR -Nw --- -Ma 0 -Md ffffffff -Ms 6 -Mt 800 -Is 6.255 -Id -1.255 -It AODV -Il 48 -If 0 -Ii 0 -Iv 29 -P aodv -Pt 0x2 -Ph 2 -Pb 1 -Pd 3 -Pds 0 -Ps 8 -Pss 4 -Pc REQUEST 
r -t 0.505826959 -Hs 8 -Hd -2 -Ni 8 -Nx 315.00 -Ny 230.00 -Nz 0.00 -Ne 99.696180 -Nl RTR -Nw --- -Ma 0 -Md ffffffff -Ms 6 -Mt 800 -Is 6.255 -Id -1.255 -It AODV -Il 48 -If 0 -Ii 0 -Iv 29 -P aodv -Pt 0x2 -Ph 2 -Pb 1 -Pd 3 -Pds 0 -Ps 8 -Pss 4 -Pc REQUEST 
s -t 0.505920234 -Hs 7 -Hd -2 -Ni 7 -Nx 416.00 -Ny 341.00 -Nz 0.00 -Ne 99.696349 -Nl RTR -Nw --- -Ma 0 -Md ffffffff -Ms 8 -Mt 800 -Is 7.255 -Id -1.255 -It AODV -Il 48 -If 0 -Ii 0 -Iv 29 -P aodv -Pt 0x2 -Ph 2 -Pb 1 -Pd 3 -Pds 0 -Ps 8 -Pss 4 -Pc REQUEST 
s -t 0.506035234 -Hs 7 -Hd -2 -Ni 7 -Nx 416.00 -Ny 341.00 -Nz 0.00 -Ne 99.696349 -Nl MAC -Nw --- -Ma 0 -Md ffffffff -Ms 7 -Mt 800 -Is 7.255 -Id -1.255 -It AODV -Il 106 -If 0 -Ii 0 -Iv 29 -P aodv -Pt 0x2 -Ph 2 -Pb 1 -Pd 3 -Pds 0 -Ps 8 -Pss 4 -Pc REQUEST 
N -t 0.506036 -n 8 -e 99.695446
N -t 0.506036 -n 6 -e 99.695446
N -t 0.506036 -n 0 -e 99.695615
N -t 0.506036 -n 1 -e 99.695615
N -t 0.506036 -n 2 -e 99.695615
N -t 0.506036 -n 9 -e 99.695615
N -t 0.506036 -n 5 -e 99.695615
N -t 0.506036 -n 3 -e 99.695615
N -t 0.506037 -n 4 -e 99.695615
r -t 0.506883734 -Hs 8 -Hd -2 -Ni 8 -Nx 315.00 -Ny 230.00 -Nz 0.00 -Ne 99.695446 -Nl MAC -Nw --- -Ma 0 -Md ffffffff -Ms 7 -Mt 800 -Is 7.255 -Id -1.255 -It AODV -Il 48 -If 0 -Ii 0 -Iv 29 -P aodv -Pt 0x2 -Ph 2 -Pb 1 -Pd 3 -Pds 0 -Ps 8 -Pss 4 -Pc REQUEST 
r -t 0.506883752 -Hs 6 -Hd -2 -Ni 6 -Nx 516.00 -Ny 222.00 -Nz 0.00 -Ne 99.695446 -Nl MAC -Nw --- -Ma 0 -Md ffffffff -Ms 7 -Mt 800 -Is 7.255 -Id -1.255 -It AODV -Il 48 -If 0 -Ii 0 -Iv 29 -P aodv -Pt 0x2 -Ph 2 -Pb 1 -Pd 3 -Pds 0 -Ps 8 -Pss 4 -Pc REQUEST 
r -t 0.506883810 -Hs 0 -Hd -2 -Ni 0 -Nx 260.00 -Ny 415.00 -Nz 0.00 -Ne 99.695615 -Nl MAC -Nw --- -Ma 0 -Md ffffffff -Ms 7 -Mt 800 -Is 7.255 -Id -1.255 -It AODV -Il 48 -If 0 -Ii 0 -Iv 29 -P aodv -Pt 0x2 -Ph 2 -Pb 1 -Pd 3 -Pds 0 -Ps 8 -Pss 4 -Pc REQUEST 
r -t 0.506883826 -Hs 1 -Hd -2 -Ni 1 -Nx 429.00 -Ny 518.00 -Nz 0.00 -Ne 99.695615 -Nl MAC -Nw --- -Ma 0 -Md ffffffff -Ms 7 -Mt 800 -Is 7.255 -Id -1.255 -It AODV -Il 48 -If 0 -Ii 0 -Iv 29 -P aodv -Pt 0x2 -Ph 2 -Pb 1 -Pd 3 -Pds 0 -Ps 8 -Pss 4 -Pc REQUEST 
r -t 0.506883835 -Hs 2 -Hd -2 -Ni 2 -Nx 582.00 -Ny 411.00 -Nz 0.00 -Ne 99.695615 -Nl MAC -Nw --- -Ma 0 -Md ffffffff -Ms 7 -Mt 800 -Is 7.255 -Id -1.255 -It AODV -Il 48 -If 0 -Ii 0 -Iv 29 -P aodv -Pt 0x2 -Ph 2 -Pb 1 -Pd 3 -Pds 0 -Ps 8 -Pss 4 -Pc REQUEST 
r -t 0.506908734 -Hs 8 -Hd -2 -Ni 8 -Nx 315.00 -Ny 230.00 -Nz 0.00 -Ne 99.695446 -Nl RTR -Nw --- -Ma 0 -Md ffffffff -Ms 7 -Mt 800 -Is 7.255 -Id -1.255 -It AODV -Il 48 -If 0 -Ii 0 -Iv 29 -P aodv -Pt 0x2 -Ph 2 -Pb 1 -Pd 3 -Pds 0 -Ps 8 -Pss 4 -Pc REQUEST 
r -t 0.506908752 -Hs 6 -Hd -2 -Ni 6 -Nx 516.00 -Ny 222.00 -Nz 0.00 -Ne 99.695446 -Nl RTR -Nw --- -Ma 0 -Md ffffffff -Ms 7 -Mt 800 -Is 7.255 -Id -1.255 -It AODV -Il 48 -If 0 -Ii 0 -Iv 29 -P aodv -Pt 0x2 -Ph 2 -Pb 1 -Pd 3 -Pds 0 -Ps 8 -Pss 4 -Pc REQUEST 
r -t 0.506908810 -Hs 0 -Hd -2 -Ni 0 -Nx 260.00 -Ny 415.00 -Nz 0.00 -Ne 99.695615 -Nl RTR -Nw --- -Ma 0 -Md ffffffff -Ms 7 -Mt 800 -Is 7.255 -Id -1.255 -It AODV -Il 48 -If 0 -Ii 0 -Iv 29 -P aodv -Pt 0x2 -Ph 2 -Pb 1 -Pd 3 -Pds 0 -Ps 8 -Pss 4 -Pc REQUEST 
r -t 0.506908826 -Hs 1 -Hd -2 -Ni 1 -Nx 429.00 -Ny 518.00 -Nz 0.00 -Ne 99.695615 -Nl RTR -Nw --- -Ma 0 -Md ffffffff -Ms 7 -Mt 800 -Is 7.255 -Id -1.255 -It AODV -Il 48 -If 0 -Ii 0 -Iv 29 -P aodv -Pt 0x2 -Ph 2 -Pb 1 -Pd 3 -Pds 0 -Ps 8 -Pss 4 -Pc REQUEST 
r -t 0.506908835 -Hs 2 -Hd -2 -Ni 2 -Nx 582.00 -Ny 411.00 -Nz 0.00 -Ne 99.695615 -Nl RTR -Nw --- -Ma 0 -Md ffffffff -Ms 7 -Mt 800 -Is 7.255 -Id -1.255 -It AODV -Il 48 -If 0 -Ii 0 -Iv 29 -P aodv -Pt 0x2 -Ph 2 -Pb 1 -Pd 3 -Pds 0 -Ps 8 -Pss 4 -Pc REQUEST 
s -t 0.508917686 -Hs 5 -Hd -2 -Ni 5 -Nx 698.00 -Ny 230.00 -Nz 0.00 -Ne 99.695615 -Nl RTR -Nw --- -Ma 0 -Md ffffffff -Ms 6 -Mt 800 -Is 5.255 -Id -1.255 -It AODV -Il 48 -If 0 -Ii 0 -Iv 28 -P aodv -Pt 0x2 -Ph 3 -Pb 1 -Pd 3 -Pds 0 -Ps 8 -Pss 4 -Pc REQUEST 
s -t 0.509352686 -Hs 5 -Hd -2 -Ni 5 -Nx 698.00 -Ny 230.00 -Nz 0.00 -Ne 99.695615 -Nl MAC -Nw --- -Ma 0 -Md ffffffff -Ms 5 -Mt 800 -Is 5.255 -Id -1.255 -It AODV -Il 106 -If 0 -Ii 0 -Iv 28 -P aodv -Pt 0x2 -Ph 3 -Pb 1 -Pd 3 -Pds 0 -Ps 8 -Pss 4 -Pc REQUEST 
N -t 0.509353 -n 6 -e 99.693370
N -t 0.509353 -n 4 -e 99.693540
N -t 0.509353 -n 2 -e 99.693540
N -t 0.509353 -n 9 -e 99.693540
N -t 0.509354 -n 3 -e 99.693540
N -t 0.509354 -n 7 -e 99.693370
N -t 0.509354 -n 8 -e 99.693370
N -t 0.509354 -n 1 -e 99.693540
N -t 0.509354 -n 0 -e 99.693539
s -t 0.509500198 -Hs 0 -Hd -2 -Ni 0 -Nx 260.00 -Ny 415.00 -Nz 0.00 -Ne 99.693539 -Nl RTR -Nw --- -Ma 0 -Md ffffffff -Ms 8 -Mt 800 -Is 0.255 -Id -1.255 -It AODV -Il 48 -If 0 -Ii 0 -Iv 29 -P aodv -Pt 0x2 -Ph 2 -Pb 1 -Pd 3 -Pds 0 -Ps 8 -Pss 4 -Pc REQUEST 
s -t 0.509673591 -Hs 9 -Hd -2 -Ni 9 -Nx 514.00 -Ny 80.00 -Nz 0.00 -Ne 99.693540 -Nl RTR -Nw --- -Ma 0 -Md ffffffff -Ms 8 -Mt 800 -Is 9.255 -Id -1.255 -It AODV -Il 48 -If 0 -Ii 0 -Iv 29 -P aodv -Pt 0x2 -Ph 2 -Pb 1 -Pd 3 -Pds 0 -Ps 8 -Pss 4 -Pc REQUEST 
r -t 0.510201293 -Hs 6 -Hd -2 -Ni 6 -Nx 516.00 -Ny 222.00 -Nz 0.00 -Ne 99.693370 -Nl MAC -Nw --- -Ma 0 -Md ffffffff -Ms 5 -Mt 800 -Is 5.255 -Id -1.255 -It AODV -Il 48 -If 0 -Ii 0 -Iv 28 -P aodv -Pt 0x2 -Ph 3 -Pb 1 -Pd 3 -Pds 0 -Ps 8 -Pss 4 -Pc REQUEST 
r -t 0.510201370 -Hs 4 -Hd -2 -Ni 4 -Nx 791.00 -Ny 413.00 -Nz 0.00 -Ne 99.693540 -Nl MAC -Nw --- -Ma 0 -Md ffffffff -Ms 5 -Mt 800 -Is 5.255 -Id -1.255 -It AODV -Il 48 -If 0 -Ii 0 -Iv 28 -P aodv -Pt 0x2 -Ph 3 -Pb 1 -Pd 3 -Pds 0 -Ps 8 -Pss 4 -Pc REQUEST 
r -t 0.510201403 -Hs 2 -Hd -2 -Ni 2 -Nx 582.00 -Ny 411.00 -Nz 0.00 -Ne 99.693540 -Nl MAC -Nw --- -Ma 0 -Md ffffffff -Ms 5 -Mt 800 -Is 5.255 -Id -1.255 -It AODV -Il 48 -If 0 -Ii 0 -Iv 28 -P aodv -Pt 0x2 -Ph 3 -Pb 1 -Pd 3 -Pds 0 -Ps 8 -Pss 4 -Pc REQUEST 
r -t 0.510201477 -Hs 9 -Hd -2 -Ni 9 -Nx 514.00 -Ny 80.00 -Nz 0.00 -Ne 99.693540 -Nl MAC -Nw --- -Ma 0 -Md ffffffff -Ms 5 -Mt 800 -Is 5.255 -Id -1.255 -It AODV -Il 48 -If 0 -Ii 0 -Iv 28 -P aodv -Pt 0x2 -Ph 3 -Pb 1 -Pd 3 -Pds 0 -Ps 8 -Pss 4 -Pc REQUEST 
r -t 0.510226293 -Hs 6 -Hd -2 -Ni 6 -Nx 516.00 -Ny 222.00 -Nz 0.00 -Ne 99.693370 -Nl RTR -Nw --- -Ma 0 -Md ffffffff -Ms 5 -Mt 800 -Is 5.255 -Id -1.255 -It AODV -Il 48 -If 0 -Ii 0 -Iv 28 -P aodv -Pt 0x2 -Ph 3 -Pb 1 -Pd 3 -Pds 0 -Ps 8 -Pss 4 -Pc REQUEST 
r -t 0.510226370 -Hs 4 -Hd -2 -Ni 4 -Nx 791.00 -Ny 413.00 -Nz 0.00 -Ne 99.693540 -Nl RTR -Nw --- -Ma 0 -Md ffffffff -Ms 5 -Mt 800 -Is 5.255 -Id -1.255 -It AODV -Il 48 -If 0 -Ii 0 -Iv 28 -P aodv -Pt 0x2 -Ph 3 -Pb 1 -Pd 3 -Pds 0 -Ps 8 -Pss 4 -Pc REQUEST 
r -t 0.510226403 -Hs 2 -Hd -2 -Ni 2 -Nx 582.00 -Ny 411.00 -Nz 0.00 -Ne 99.693540 -Nl RTR -Nw --- -Ma 0 -Md ffffffff -Ms 5 -Mt 800 -Is 5.255 -Id -1.255 -It AODV -Il 48 -If 0 -Ii 0 -Iv 28 -P aodv -Pt 0x2 -Ph 3 -Pb 1 -Pd 3 -Pds 0 -Ps 8 -Pss 4 -Pc REQUEST 
r -t 0.510226477 -Hs 9 -Hd -2 -Ni 9 -Nx 514.00 -Ny 80.00 -Nz 0.00 -Ne 99.693540 -Nl RTR -Nw --- -Ma 0 -Md ffffffff -Ms 5 -Mt 800 -Is 5.255 -Id -1.255 -It AODV -Il 48 -If 0 -Ii 0 -Iv 28 -P aodv -Pt 0x2 -Ph 3 -Pb 1 -Pd 3 -Pds 0 -Ps 8 -Pss 4 -Pc REQUEST 
s -t 0.510411477 -Hs 9 -Hd -2 -Ni 9 -Nx 514.00 -Ny 80.00 -Nz 0.00 -Ne 99.693540 -Nl MAC -Nw --- -Ma 0 -Md ffffffff -Ms 9 -Mt 800 -Is 9.255 -Id -1.255 -It AODV -Il 106 -If 0 -Ii 0 -Iv 29 -P aodv -Pt 0x2 -Ph 2 -Pb 1 -Pd 3 -Pds 0 -Ps 8 -Pss 4 -Pc REQUEST 
N -t 0.510412 -n 6 -e 99.692650
N -t 0.510412 -n 5 -e 99.692650
N -t 0.510412 -n 8 -e 99.692650
N -t 0.510412 -n 7 -e 99.692650
N -t 0.510413 -n 2 -e 99.692820
N -t 0.510413 -n 0 -e 99.692819
N -t 0.510413 -n 4 -e 99.692819
N -t 0.510413 -n 1 -e 99.692819
N -t 0.510413 -n 3 -e 99.692819
s -t 0.511167759 -Hs 4 -Hd -2 -Ni 4 -Nx 791.00 -Ny 413.00 -Nz 0.00 -Ne 99.692819 -Nl RTR -Nw --- -Ma 0 -Md ffffffff -Ms 5 -Mt 800 -Is 4.255 -Id -1.255 -It AODV -Il 48 -If 0 -Ii 0 -Iv 27 -P aodv -Pt 0x2 -Ph 4 -Pb 1 -Pd 3 -Pds 0 -Ps 8 -Pss 4 -Pc REQUEST 
r -t 0.511259951 -Hs 6 -Hd -2 -Ni 6 -Nx 516.00 -Ny 222.00 -Nz 0.00 -Ne 99.692650 -Nl MAC -Nw --- -Ma 0 -Md ffffffff -Ms 9 -Mt 800 -Is 9.255 -Id -1.255 -It AODV -Il 48 -If 0 -Ii 0 -Iv 29 -P aodv -Pt 0x2 -Ph 2 -Pb 1 -Pd 3 -Pds 0 -Ps 8 -Pss 4 -Pc REQUEST 
r -t 0.511260269 -Hs 5 -Hd -2 -Ni 5 -Nx 698.00 -Ny 230.00 -Nz 0.00 -Ne 99.692650 -Nl MAC -Nw --- -Ma 0 -Md ffffffff -Ms 9 -Mt 800 -Is 9.255 -Id -1.255 -It AODV -Il 48 -If 0 -Ii 0 -Iv 29 -P aodv -Pt 0x2 -Ph 2 -Pb 1 -Pd 3 -Pds 0 -Ps 8 -Pss 4 -Pc REQUEST 
r -t 0.511260308 -Hs 8 -Hd -2 -Ni 8 -Nx 315.00 -Ny 230.00 -Nz 0.00 -Ne 99.692650 -Nl MAC -Nw --- -Ma 0 -Md ffffffff -Ms 9 -Mt 800 -Is 9.255 -Id -1.255 -It AODV -Il 48 -If 0 -Ii 0 -Iv 29 -P aodv -Pt 0x2 -Ph 2 -Pb 1 -Pd 3 -Pds 0 -Ps 8 -Pss 4 -Pc REQUEST 
r -t 0.511284951 -Hs 6 -Hd -2 -Ni 6 -Nx 516.00 -Ny 222.00 -Nz 0.00 -Ne 99.692650 -Nl RTR -Nw --- -Ma 0 -Md ffffffff -Ms 9 -Mt 800 -Is 9.255 -Id -1.255 -It AODV -Il 48 -If 0 -Ii 0 -Iv 29 -P aodv -Pt 0x2 -Ph 2 -Pb 1 -Pd 3 -Pds 0 -Ps 8 -Pss 4 -Pc REQUEST 
r -t 0.511285269 -Hs 5 -Hd -2 -Ni 5 -Nx 698.00 -Ny 230.00 -Nz 0.00 -Ne 99.692650 -Nl RTR -Nw --- -Ma 0 -Md ffffffff -Ms 9 -Mt 800 -Is 9.255 -Id -1.255 -It AODV -Il 48 -If 0 -Ii 0 -Iv 29 -P aodv -Pt 0x2 -Ph 2 -Pb 1 -Pd 3 -Pds 0 -Ps 8 -Pss 4 -Pc REQUEST 
r -t 0.511285308 -Hs 8 -Hd -2 -Ni 8 -Nx 315.00 -Ny 230.00 -Nz 0.00 -Ne 99.692650 -Nl RTR -Nw --- -Ma 0 -Md ffffffff -Ms 9 -Mt 800 -Is 9.255 -Id -1.255 -It AODV -Il 48 -If 0 -Ii 0 -Iv 29 -P aodv -Pt 0x2 -Ph 2 -Pb 1 -Pd 3 -Pds 0 -Ps 8 -Pss 4 -Pc REQUEST 
s -t 0.511914879 -Hs 0 -Hd -2 -Ni 0 -Nx 260.00 -Ny 415.00 -Nz 0.00 -Ne 99.692819 -Nl MAC -Nw --- -Ma 0 -Md ffffffff -Ms 0 -Mt 800 -Is 0.255 -Id -1.255 -It AODV -Il 106 -If 0 -Ii 0 -Iv 29 -P aodv -Pt 0x2 -Ph 2 -Pb 1 -Pd 3 -Pds 0 -Ps 8 -Pss 4 -Pc REQUEST 
N -t 0.511915 -n 7 -e 99.691664
N -t 0.511916 -n 8 -e 99.691663
N -t 0.511916 -n 1 -e 99.691833
N -t 0.511916 -n 6 -e 99.691663
N -t 0.511916 -n 2 -e 99.691833
N -t 0.511916 -n 9 -e 99.691663
N -t 0.511916 -n 3 -e 99.691833
N -t 0.511916 -n 5 -e 99.691663
N -t 0.511917 -n 4 -e 99.691832
r -t 0.512763454 -Hs 7 -Hd -2 -Ni 7 -Nx 416.00 -Ny 341.00 -Nz 0.00 -Ne 99.691664 -Nl MAC -Nw --- -Ma 0 -Md ffffffff -Ms 0 -Mt 800 -Is 0.255 -Id -1.255 -It AODV -Il 48 -If 0 -Ii 0 -Iv 29 -P aodv -Pt 0x2 -Ph 2 -Pb 1 -Pd 3 -Pds 0 -Ps 8 -Pss 4 -Pc REQUEST 
r -t 0.512763522 -Hs 8 -Hd -2 -Ni 8 -Nx 315.00 -Ny 230.00 -Nz 0.00 -Ne 99.691663 -Nl MAC -Nw --- -Ma 0 -Md ffffffff -Ms 0 -Mt 800 -Is 0.255 -Id -1.255 -It AODV -Il 48 -If 0 -Ii 0 -Iv 29 -P aodv -Pt 0x2 -Ph 2 -Pb 1 -Pd 3 -Pds 0 -Ps 8 -Pss 4 -Pc REQUEST 
r -t 0.512763538 -Hs 1 -Hd -2 -Ni 1 -Nx 429.00 -Ny 518.00 -Nz 0.00 -Ne 99.691833 -Nl MAC -Nw --- -Ma 0 -Md ffffffff -Ms 0 -Mt 800 -Is 0.255 -Id -1.255 -It AODV -Il 48 -If 0 -Ii 0 -Iv 29 -P aodv -Pt 0x2 -Ph 2 -Pb 1 -Pd 3 -Pds 0 -Ps 8 -Pss 4 -Pc REQUEST 
r -t 0.512788454 -Hs 7 -Hd -2 -Ni 7 -Nx 416.00 -Ny 341.00 -Nz 0.00 -Ne 99.691664 -Nl RTR -Nw --- -Ma 0 -Md ffffffff -Ms 0 -Mt 800 -Is 0.255 -Id -1.255 -It AODV -Il 48 -If 0 -Ii 0 -Iv 29 -P aodv -Pt 0x2 -Ph 2 -Pb 1 -Pd 3 -Pds 0 -Ps 8 -Pss 4 -Pc REQUEST 
r -t 0.512788522 -Hs 8 -Hd -2 -Ni 8 -Nx 315.00 -Ny 230.00 -Nz 0.00 -Ne 99.691663 -Nl RTR -Nw --- -Ma 0 -Md ffffffff -Ms 0 -Mt 800 -Is 0.255 -Id -1.255 -It AODV -Il 48 -If 0 -Ii 0 -Iv 29 -P aodv -Pt 0x2 -Ph 2 -Pb 1 -Pd 3 -Pds 0 -Ps 8 -Pss 4 -Pc REQUEST 
r -t 0.512788538 -Hs 1 -Hd -2 -Ni 1 -Nx 429.00 -Ny 518.00 -Nz 0.00 -Ne 99.691833 -Nl RTR -Nw --- -Ma 0 -Md ffffffff -Ms 0 -Mt 800 -Is 0.255 -Id -1.255 -It AODV -Il 48 -If 0 -Ii 0 -Iv 29 -P aodv -Pt 0x2 -Ph 2 -Pb 1 -Pd 3 -Pds 0 -Ps 8 -Pss 4 -Pc REQUEST 
s -t 0.513258649 -Hs 4 -Hd -2 -Ni 4 -Nx 791.00 -Ny 413.00 -Nz 0.00 -Ne 99.691832 -Nl MAC -Nw --- -Ma 0 -Md ffffffff -Ms 4 -Mt 800 -Is 4.255 -Id -1.255 -It AODV -Il 106 -If 0 -Ii 0 -Iv 27 -P aodv -Pt 0x2 -Ph 4 -Pb 1 -Pd 3 -Pds 0 -Ps 8 -Pss 4 -Pc REQUEST 
N -t 0.513259 -n 3 -e 99.690942
N -t 0.513259 -n 5 -e 99.690772
N -t 0.513259 -n 2 -e 99.690942
N -t 0.513260 -n 6 -e 99.690772
N -t 0.513260 -n 1 -e 99.690942
N -t 0.513260 -n 7 -e 99.690772
N -t 0.513260 -n 9 -e 99.690772
N -t 0.513260 -n 8 -e 99.690772
N -t 0.513260 -n 0 -e 99.690772
s -t 0.513309502 -Hs 1 -Hd -2 -Ni 1 -Nx 429.00 -Ny 518.00 -Nz 0.00 -Ne 99.690942 -Nl RTR -Nw --- -Ma 0 -Md ffffffff -Ms 7 -Mt 800 -Is 1.255 -Id -1.255 -It AODV -Il 48 -If 0 -Ii 0 -Iv 28 -P aodv -Pt 0x2 -Ph 3 -Pb 1 -Pd 3 -Pds 0 -Ps 8 -Pss 4 -Pc REQUEST 
r -t 0.514107161 -Hs 3 -Hd -2 -Ni 3 -Nx 678.00 -Ny 517.00 -Nz 0.00 -Ne 99.690942 -Nl MAC -Nw --- -Ma 0 -Md ffffffff -Ms 4 -Mt 800 -Is 4.255 -Id -1.255 -It AODV -Il 48 -If 0 -Ii 0 -Iv 27 -P aodv -Pt 0x2 -Ph 4 -Pb 1 -Pd 3 -Pds 0 -Ps 8 -Pss 4 -Pc REQUEST 
r -t 0.514107333 -Hs 5 -Hd -2 -Ni 5 -Nx 698.00 -Ny 230.00 -Nz 0.00 -Ne 99.690772 -Nl MAC -Nw --- -Ma 0 -Md ffffffff -Ms 4 -Mt 800 -Is 4.255 -Id -1.255 -It AODV -Il 48 -If 0 -Ii 0 -Iv 27 -P aodv -Pt 0x2 -Ph 4 -Pb 1 -Pd 3 -Pds 0 -Ps 8 -Pss 4 -Pc REQUEST 
r -t 0.514107345 -Hs 2 -Hd -2 -Ni 2 -Nx 582.00 -Ny 411.00 -Nz 0.00 -Ne 99.690942 -Nl MAC -Nw --- -Ma 0 -Md ffffffff -Ms 4 -Mt 800 -Is 4.255 -Id -1.255 -It AODV -Il 48 -If 0 -Ii 0 -Iv 27 -P aodv -Pt 0x2 -Ph 4 -Pb 1 -Pd 3 -Pds 0 -Ps 8 -Pss 4 -Pc REQUEST 
r -t 0.514132161 -Hs 3 -Hd -2 -Ni 3 -Nx 678.00 -Ny 517.00 -Nz 0.00 -Ne 99.690942 -Nl RTR -Nw --- -Ma 0 -Md ffffffff -Ms 4 -Mt 800 -Is 4.255 -Id -1.255 -It AODV -Il 48 -If 0 -Ii 0 -Iv 27 -P aodv -Pt 0x2 -Ph 4 -Pb 1 -Pd 3 -Pds 0 -Ps 8 -Pss 4 -Pc REQUEST 
s -t 0.514132161 -Hs 3 -Hd 4 -Ni 3 -Nx 678.00 -Ny 517.00 -Nz 0.00 -Ne 99.690942 -Nl RTR -Nw --- -Ma 0 -Md 0 -Ms 0 -Mt 0 -Is 3.255 -Id 8.255 -It AODV -Il 44 -If 0 -Ii 0 -Iv 30 -P aodv -Pt 0x4 -Ph 1 -Pd 3 -Pds 4 -Pl 10.000000 -Pc REPLY 
r -t 0.514132333 -Hs 5 -Hd -2 -Ni 5 -Nx 698.00 -Ny 230.00 -Nz 0.00 -Ne 99.690772 -Nl RTR -Nw --- -Ma 0 -Md ffffffff -Ms 4 -Mt 800 -Is 4.255 -Id -1.255 -It AODV -Il 48 -If 0 -Ii 0 -Iv 27 -P aodv -Pt 0x2 -Ph 4 -Pb 1 -Pd 3 -Pds 0 -Ps 8 -Pss 4 -Pc REQUEST 
r -t 0.514132345 -Hs 2 -Hd -2 -Ni 2 -Nx 582.00 -Ny 411.00 -Nz 0.00 -Ne 99.690942 -Nl RTR -Nw --- -Ma 0 -Md ffffffff -Ms 4 -Mt 800 -Is 4.255 -Id -1.255 -It AODV -Il 48 -If 0 -Ii 0 -Iv 27 -P aodv -Pt 0x2 -Ph 4 -Pb 1 -Pd 3 -Pds 0 -Ps 8 -Pss 4 -Pc REQUEST 
s -t 0.514190191 -Hs 2 -Hd -2 -Ni 2 -Nx 582.00 -Ny 411.00 -Nz 0.00 -Ne 99.690942 -Nl RTR -Nw --- -Ma 0 -Md ffffffff -Ms 6 -Mt 800 -Is 2.255 -Id -1.255 -It AODV -Il 48 -If 0 -Ii 0 -Iv 28 -P aodv -Pt 0x2 -Ph 3 -Pb 1 -Pd 3 -Pds 0 -Ps 8 -Pss 4 -Pc REQUEST 
s -t 0.514445191 -Hs 2 -Hd -2 -Ni 2 -Nx 582.00 -Ny 411.00 -Nz 0.00 -Ne 99.690942 -Nl MAC -Nw --- -Ma 0 -Md ffffffff -Ms 2 -Mt 800 -Is 2.255 -Id -1.255 -It AODV -Il 106 -If 0 -Ii 0 -Iv 28 -P aodv -Pt 0x2 -Ph 3 -Pb 1 -Pd 3 -Pds 0 -Ps 8 -Pss 4 -Pc REQUEST 
N -t 0.514446 -n 3 -e 99.690145
N -t 0.514446 -n 7 -e 99.689976
N -t 0.514446 -n 1 -e 99.690145
N -t 0.514446 -n 6 -e 99.689976
N -t 0.514446 -n 4 -e 99.689976
N -t 0.514446 -n 5 -e 99.689976
N -t 0.514446 -n 0 -e 99.689975
N -t 0.514446 -n 8 -e 99.689975
N -t 0.514446 -n 9 -e 99.689975
r -t 0.515293668 -Hs 3 -Hd -2 -Ni 3 -Nx 678.00 -Ny 517.00 -Nz 0.00 -Ne 99.690145 -Nl MAC -Nw --- -Ma 0 -Md ffffffff -Ms 2 -Mt 800 -Is 2.255 -Id -1.255 -It AODV -Il 48 -If 0 -Ii 0 -Iv 28 -P aodv -Pt 0x2 -Ph 3 -Pb 1 -Pd 3 -Pds 0 -Ps 8 -Pss 4 -Pc REQUEST 
r -t 0.515293791 -Hs 7 -Hd -2 -Ni 7 -Nx 416.00 -Ny 341.00 -Nz 0.00 -Ne 99.689976 -Nl MAC -Nw --- -Ma 0 -Md ffffffff -Ms 2 -Mt 800 -Is 2.255 -Id -1.255 -It AODV -Il 48 -If 0 -Ii 0 -Iv 28 -P aodv -Pt 0x2 -Ph 3 -Pb 1 -Pd 3 -Pds 0 -Ps 8 -Pss 4 -Pc REQUEST 
r -t 0.515293813 -Hs 1 -Hd -2 -Ni 1 -Nx 429.00 -Ny 518.00 -Nz 0.00 -Ne 99.690145 -Nl MAC -Nw --- -Ma 0 -Md ffffffff -Ms 2 -Mt 800 -Is 2.255 -Id -1.255 -It AODV -Il 48 -If 0 -Ii 0 -Iv 28 -P aodv -Pt 0x2 -Ph 3 -Pb 1 -Pd 3 -Pds 0 -Ps 8 -Pss 4 -Pc REQUEST 
r -t 0.515293858 -Hs 6 -Hd -2 -Ni 6 -Nx 516.00 -Ny 222.00 -Nz 0.00 -Ne 99.689976 -Nl MAC -Nw --- -Ma 0 -Md ffffffff -Ms 2 -Mt 800 -Is 2.255 -Id -1.255 -It AODV -Il 48 -If 0 -Ii 0 -Iv 28 -P aodv -Pt 0x2 -Ph 3 -Pb 1 -Pd 3 -Pds 0 -Ps 8 -Pss 4 -Pc REQUEST 
r -t 0.515293888 -Hs 4 -Hd -2 -Ni 4 -Nx 791.00 -Ny 413.00 -Nz 0.00 -Ne 99.689976 -Nl MAC -Nw --- -Ma 0 -Md ffffffff -Ms 2 -Mt 800 -Is 2.255 -Id -1.255 -It AODV -Il 48 -If 0 -Ii 0 -Iv 28 -P aodv -Pt 0x2 -Ph 3 -Pb 1 -Pd 3 -Pds 0 -Ps 8 -Pss 4 -Pc REQUEST 
r -t 0.515293908 -Hs 5 -Hd -2 -Ni 5 -Nx 698.00 -Ny 230.00 -Nz 0.00 -Ne 99.689976 -Nl MAC -Nw --- -Ma 0 -Md ffffffff -Ms 2 -Mt 800 -Is 2.255 -Id -1.255 -It AODV -Il 48 -If 0 -Ii 0 -Iv 28 -P aodv -Pt 0x2 -Ph 3 -Pb 1 -Pd 3 -Pds 0 -Ps 8 -Pss 4 -Pc REQUEST 
r -t 0.515318668 -Hs 3 -Hd -2 -Ni 3 -Nx 678.00 -Ny 517.00 -Nz 0.00 -Ne 99.690145 -Nl RTR -Nw --- -Ma 0 -Md ffffffff -Ms 2 -Mt 800 -Is 2.255 -Id -1.255 -It AODV -Il 48 -If 0 -Ii 0 -Iv 28 -P aodv -Pt 0x2 -Ph 3 -Pb 1 -Pd 3 -Pds 0 -Ps 8 -Pss 4 -Pc REQUEST 
r -t 0.515318791 -Hs 7 -Hd -2 -Ni 7 -Nx 416.00 -Ny 341.00 -Nz 0.00 -Ne 99.689976 -Nl RTR -Nw --- -Ma 0 -Md ffffffff -Ms 2 -Mt 800 -Is 2.255 -Id -1.255 -It AODV -Il 48 -If 0 -Ii 0 -Iv 28 -P aodv -Pt 0x2 -Ph 3 -Pb 1 -Pd 3 -Pds 0 -Ps 8 -Pss 4 -Pc REQUEST 
r -t 0.515318813 -Hs 1 -Hd -2 -Ni 1 -Nx 429.00 -Ny 518.00 -Nz 0.00 -Ne 99.690145 -Nl RTR -Nw --- -Ma 0 -Md ffffffff -Ms 2 -Mt 800 -Is 2.255 -Id -1.255 -It AODV -Il 48 -If 0 -Ii 0 -Iv 28 -P aodv -Pt 0x2 -Ph 3 -Pb 1 -Pd 3 -Pds 0 -Ps 8 -Pss 4 -Pc REQUEST 
r -t 0.515318858 -Hs 6 -Hd -2 -Ni 6 -Nx 516.00 -Ny 222.00 -Nz 0.00 -Ne 99.689976 -Nl RTR -Nw --- -Ma 0 -Md ffffffff -Ms 2 -Mt 800 -Is 2.255 -Id -1.255 -It AODV -Il 48 -If 0 -Ii 0 -Iv 28 -P aodv -Pt 0x2 -Ph 3 -Pb 1 -Pd 3 -Pds 0 -Ps 8 -Pss 4 -Pc REQUEST 
r -t 0.515318888 -Hs 4 -Hd -2 -Ni 4 -Nx 791.00 -Ny 413.00 -Nz 0.00 -Ne 99.689976 -Nl RTR -Nw --- -Ma 0 -Md ffffffff -Ms 2 -Mt 800 -Is 2.255 -Id -1.255 -It AODV -Il 48 -If 0 -Ii 0 -Iv 28 -P aodv -Pt 0x2 -Ph 3 -Pb 1 -Pd 3 -Pds 0 -Ps 8 -Pss 4 -Pc REQUEST 
r -t 0.515318908 -Hs 5 -Hd -2 -Ni 5 -Nx 698.00 -Ny 230.00 -Nz 0.00 -Ne 99.689976 -Nl RTR -Nw --- -Ma 0 -Md ffffffff -Ms 2 -Mt 800 -Is 2.255 -Id -1.255 -It AODV -Il 48 -If 0 -Ii 0 -Iv 28 -P aodv -Pt 0x2 -Ph 3 -Pb 1 -Pd 3 -Pds 0 -Ps 8 -Pss 4 -Pc REQUEST 
s -t 0.515363813 -Hs 1 -Hd -2 -Ni 1 -Nx 429.00 -Ny 518.00 -Nz 0.00 -Ne 99.690145 -Nl MAC -Nw --- -Ma 0 -Md ffffffff -Ms 1 -Mt 800 -Is 1.255 -Id -1.255 -It AODV -Il 106 -If 0 -Ii 0 -Iv 28 -P aodv -Pt 0x2 -Ph 3 -Pb 1 -Pd 3 -Pds 0 -Ps 8 -Pss 4 -Pc REQUEST 
N -t 0.515364 -n 7 -e 99.689340
N -t 0.515364 -n 2 -e 99.689340
N -t 0.515364 -n 0 -e 99.689340
N -t 0.515365 -n 3 -e 99.689509
N -t 0.515365 -n 6 -e 99.689339
N -t 0.515365 -n 8 -e 99.689339
N -t 0.515365 -n 4 -e 99.689339
N -t 0.515365 -n 5 -e 99.689339
N -t 0.515365 -n 9 -e 99.689339
r -t 0.516212405 -Hs 7 -Hd -2 -Ni 7 -Nx 416.00 -Ny 341.00 -Nz 0.00 -Ne 99.689340 -Nl MAC -Nw --- -Ma 0 -Md ffffffff -Ms 1 -Mt 800 -Is 1.255 -Id -1.255 -It AODV -Il 48 -If 0 -Ii 0 -Iv 28 -P aodv -Pt 0x2 -Ph 3 -Pb 1 -Pd 3 -Pds 0 -Ps 8 -Pss 4 -Pc REQUEST 
r -t 0.516212436 -Hs 2 -Hd -2 -Ni 2 -Nx 582.00 -Ny 411.00 -Nz 0.00 -Ne 99.689340 -Nl MAC -Nw --- -Ma 0 -Md ffffffff -Ms 1 -Mt 800 -Is 1.255 -Id -1.255 -It AODV -Il 48 -If 0 -Ii 0 -Iv 28 -P aodv -Pt 0x2 -Ph 3 -Pb 1 -Pd 3 -Pds 0 -Ps 8 -Pss 4 -Pc REQUEST 
r -t 0.516212473 -Hs 0 -Hd -2 -Ni 0 -Nx 260.00 -Ny 415.00 -Nz 0.00 -Ne 99.689340 -Nl MAC -Nw --- -Ma 0 -Md ffffffff -Ms 1 -Mt 800 -Is 1.255 -Id -1.255 -It AODV -Il 48 -If 0 -Ii 0 -Iv 28 -P aodv -Pt 0x2 -Ph 3 -Pb 1 -Pd 3 -Pds 0 -Ps 8 -Pss 4 -Pc REQUEST 
r -t 0.516212643 -Hs 3 -Hd -2 -Ni 3 -Nx 678.00 -Ny 517.00 -Nz 0.00 -Ne 99.689509 -Nl MAC -Nw --- -Ma 0 -Md ffffffff -Ms 1 -Mt 800 -Is 1.255 -Id -1.255 -It AODV -Il 48 -If 0 -Ii 0 -Iv 28 -P aodv -Pt 0x2 -Ph 3 -Pb 1 -Pd 3 -Pds 0 -Ps 8 -Pss 4 -Pc REQUEST 
r -t 0.516237405 -Hs 7 -Hd -2 -Ni 7 -Nx 416.00 -Ny 341.00 -Nz 0.00 -Ne 99.689340 -Nl RTR -Nw --- -Ma 0 -Md ffffffff -Ms 1 -Mt 800 -Is 1.255 -Id -1.255 -It AODV -Il 48 -If 0 -Ii 0 -Iv 28 -P aodv -Pt 0x2 -Ph 3 -Pb 1 -Pd 3 -Pds 0 -Ps 8 -Pss 4 -Pc REQUEST 
r -t 0.516237436 -Hs 2 -Hd -2 -Ni 2 -Nx 582.00 -Ny 411.00 -Nz 0.00 -Ne 99.689340 -Nl RTR -Nw --- -Ma 0 -Md ffffffff -Ms 1 -Mt 800 -Is 1.255 -Id -1.255 -It AODV -Il 48 -If 0 -Ii 0 -Iv 28 -P aodv -Pt 0x2 -Ph 3 -Pb 1 -Pd 3 -Pds 0 -Ps 8 -Pss 4 -Pc REQUEST 
r -t 0.516237473 -Hs 0 -Hd -2 -Ni 0 -Nx 260.00 -Ny 415.00 -Nz 0.00 -Ne 99.689340 -Nl RTR -Nw --- -Ma 0 -Md ffffffff -Ms 1 -Mt 800 -Is 1.255 -Id -1.255 -It AODV -Il 48 -If 0 -Ii 0 -Iv 28 -P aodv -Pt 0x2 -Ph 3 -Pb 1 -Pd 3 -Pds 0 -Ps 8 -Pss 4 -Pc REQUEST 
r -t 0.516237643 -Hs 3 -Hd -2 -Ni 3 -Nx 678.00 -Ny 517.00 -Nz 0.00 -Ne 99.689509 -Nl RTR -Nw --- -Ma 0 -Md ffffffff -Ms 1 -Mt 800 -Is 1.255 -Id -1.255 -It AODV -Il 48 -If 0 -Ii 0 -Iv 28 -P aodv -Pt 0x2 -Ph 3 -Pb 1 -Pd 3 -Pds 0 -Ps 8 -Pss 4 -Pc REQUEST 
s -t 0.516442643 -Hs 3 -Hd -2 -Ni 3 -Nx 678.00 -Ny 517.00 -Nz 0.00 -Ne 99.689509 -Nl MAC -Nw --- -Ma 0 -Md ffffffff -Ms 3 -Mt 806 -P arp -Po REQUEST -Pms 3 -Ps 3 -Pmd 0 -Pd 4 
N -t 0.516443 -n 2 -e 99.688720
N -t 0.516443 -n 4 -e 99.688720
N -t 0.516443 -n 1 -e 99.688720
N -t 0.516444 -n 5 -e 99.688719
N -t 0.516444 -n 7 -e 99.688719
N -t 0.516444 -n 6 -e 99.688719
N -t 0.516444 -n 0 -e 99.688719
N -t 0.516444 -n 8 -e 99.688719
N -t 0.516444 -n 9 -e 99.688719
r -t 0.517131120 -Hs 2 -Hd -2 -Ni 2 -Nx 582.00 -Ny 411.00 -Nz 0.00 -Ne 99.688720 -Nl MAC -Nw --- -Ma 0 -Md ffffffff -Ms 3 -Mt 806 -P arp -Po REQUEST -Pms 3 -Ps 3 -Pmd 0 -Pd 4 
r -t 0.517131155 -Hs 4 -Hd -2 -Ni 4 -Nx 791.00 -Ny 413.00 -Nz 0.00 -Ne 99.688720 -Nl MAC -Nw --- -Ma 0 -Md ffffffff -Ms 3 -Mt 806 -P arp -Po REQUEST -Pms 3 -Ps 3 -Pmd 0 -Pd 4 
r -t 0.517131473 -Hs 1 -Hd -2 -Ni 1 -Nx 429.00 -Ny 518.00 -Nz 0.00 -Ne 99.688720 -Nl MAC -Nw --- -Ma 0 -Md ffffffff -Ms 3 -Mt 806 -P arp -Po REQUEST -Pms 3 -Ps 3 -Pmd 0 -Pd 4 
s -t 0.517546155 -Hs 4 -Hd -2 -Ni 4 -Nx 791.00 -Ny 413.00 -Nz 0.00 -Ne 99.688720 -Nl MAC -Nw --- -Ma 52e -Md 3 -Ms 4 -Mt 0 
N -t 0.517547 -n 3 -e 99.688256
N -t 0.517547 -n 5 -e 99.688224
N -t 0.517547 -n 2 -e 99.688224
N -t 0.517547 -n 6 -e 99.688224
N -t 0.517547 -n 1 -e 99.688224
N -t 0.517547 -n 7 -e 99.688224
N -t 0.517548 -n 9 -e 99.688223
N -t 0.517548 -n 8 -e 99.688223
N -t 0.517548 -n 0 -e 99.688223
r -t 0.517898667 -Hs 3 -Hd -2 -Ni 3 -Nx 678.00 -Ny 517.00 -Nz 0.00 -Ne 99.688256 -Nl MAC -Nw --- -Ma 52e -Md 3 -Ms 4 -Mt 0 
s -t 0.517908667 -Hs 3 -Hd -2 -Ni 3 -Nx 678.00 -Ny 517.00 -Nz 0.00 -Ne 99.688256 -Nl MAC -Nw --- -Ma 3f4 -Md 4 -Ms 0 -Mt 0 
N -t 0.517909 -n 2 -e 99.688005
N -t 0.517909 -n 4 -e 99.687934
N -t 0.517909 -n 1 -e 99.688005
N -t 0.517910 -n 5 -e 99.688005
N -t 0.517910 -n 7 -e 99.688005
N -t 0.517910 -n 6 -e 99.688005
N -t 0.517910 -n 0 -e 99.688004
N -t 0.517910 -n 8 -e 99.688004
N -t 0.517910 -n 9 -e 99.688004
r -t 0.518213179 -Hs 4 -Hd -2 -Ni 4 -Nx 791.00 -Ny 413.00 -Nz 0.00 -Ne 99.687934 -Nl MAC -Nw --- -Ma 3f4 -Md 4 -Ms 0 -Mt 0 
s -t 0.518223179 -Hs 4 -Hd -2 -Ni 4 -Nx 791.00 -Ny 413.00 -Nz 0.00 -Ne 99.687934 -Nl MAC -Nw --- -Ma 13a -Md 3 -Ms 4 -Mt 806 -P arp -Po REPLY -Pms 4 -Ps 4 -Pmd 3 -Pd 3 
N -t 0.518224 -n 3 -e 99.687488
N -t 0.518224 -n 5 -e 99.687517
N -t 0.518224 -n 2 -e 99.687517
N -t 0.518224 -n 6 -e 99.687517
N -t 0.518224 -n 1 -e 99.687517
N -t 0.518224 -n 7 -e 99.687517
N -t 0.518225 -n 9 -e 99.687516
N -t 0.518225 -n 8 -e 99.687516
N -t 0.518225 -n 0 -e 99.687516
r -t 0.518911691 -Hs 3 -Hd -2 -Ni 3 -Nx 678.00 -Ny 517.00 -Nz 0.00 -Ne 99.687488 -Nl MAC -Nw --- -Ma 13a -Md 3 -Ms 4 -Mt 806 -P arp -Po REPLY -Pms 4 -Ps 4 -Pmd 3 -Pd 3 
s -t 0.518921691 -Hs 3 -Hd -2 -Ni 3 -Nx 678.00 -Ny 517.00 -Nz 0.00 -Ne 99.687488 -Nl MAC -Nw --- -Ma 0 -Md 4 -Ms 0 -Mt 0 
N -t 0.518922 -n 2 -e 99.687298
N -t 0.518922 -n 4 -e 99.687090
N -t 0.518923 -n 1 -e 99.687298
N -t 0.518923 -n 5 -e 99.687298
N -t 0.518923 -n 7 -e 99.687298
N -t 0.518923 -n 6 -e 99.687298
N -t 0.518923 -n 0 -e 99.687297
N -t 0.518923 -n 8 -e 99.687297
N -t 0.518923 -n 9 -e 99.687297
r -t 0.519226203 -Hs 4 -Hd -2 -Ni 4 -Nx 791.00 -Ny 413.00 -Nz 0.00 -Ne 99.687090 -Nl MAC -Nw --- -Ma 0 -Md 4 -Ms 0 -Mt 0 
s -t 0.519455691 -Hs 3 -Hd -2 -Ni 3 -Nx 678.00 -Ny 517.00 -Nz 0.00 -Ne 99.687209 -Nl MAC -Nw --- -Ma 5ae -Md 4 -Ms 3 -Mt 0 
N -t 0.519456 -n 2 -e 99.686913
N -t 0.519456 -n 4 -e 99.686705
N -t 0.519457 -n 1 -e 99.686913
N -t 0.519457 -n 5 -e 99.686913