M 1.00000 3 (388.00, 365.00, 0.00), (500.00, 300.00), 50.00
s -t 1.000000000 -Hs 5 -Hd -2 -Ni 5 -Nx 196.00 -Ny 287.00 -Nz 0.00 -Ne 50.000000 -Nl AGT -Nw --- -Ma 0 -Md 0 -Ms 0 -Mt 0 -Is 5.0 -Id 9.0 -It tcp -Il 40 -If 0 -Ii 0 -Iv 32 -Pn tcp -Ps 0 -Pa 0 -Pf 0 -Po 0 
r -t 1.000000000 -Hs 5 -Hd -2 -Ni 5 -Nx 196.00 -Ny 287.00 -Nz 0.00 -Ne 50.000000 -Nl RTR -Nw --- -Ma 0 -Md 0 -Ms 0 -Mt 0 -Is 5.0 -Id 9.0 -It tcp -Il 40 -If 0 -Ii 0 -Iv 32 -Pn tcp -Ps 0 -Pa 0 -Pf 0 -Po 0 
s -t 1.000000000 -Hs 5 -Hd -2 -Ni 5 -Nx 196.00 -Ny 287.00 -Nz 0.00 -Ne 50.000000 -Nl RTR -Nw --- -Ma 0 -Md 0 -Ms 0 -Mt 0 -Is 5.255 -Id -1.255 -It AODV -Il 48 -If 0 -Ii 0 -Iv 30 -P aodv -Pt 0x2 -Ph 1 -Pb 1 -Pd 9 -Pds 0 -Ps 5 -Pss 4 -Pc REQUEST 
s -t 1.000635000 -Hs 5 -Hd -2 -Ni 5 -Nx 196.00 -Ny 287.00 -Nz 0.00 -Ne 50.000000 -Nl MAC -Nw --- -Ma 0 -Md ffffffff -Ms 5 -Mt 800 -Is 5.255 -Id -1.255 -It AODV -Il 106 -If 0 -Ii 0 -Iv 30 -P aodv -Pt 0x2 -Ph 1 -Pb 1 -Pd 9 -Pds 0 -Ps 5 -Pss 4 -Pc REQUEST 
N -t 1.000635 -n 2 -e 49.399025
N -t 1.000635 -n 4 -e 49.399025
N -t 1.000636 -n 13 -e 49.399025
N -t 1.000636 -n 0 -e 49.399025
N -t 1.000636 -n 3 -e 49.399025
N -t 1.000636 -n 6 -e 49.399025
N -t 1.000636 -n 1 -e 49.399025
N -t 1.000636 -n 15 -e 49.399025
N -t 1.000636 -n 12 -e 49.399025
N -t 1.000636 -n 7 -e 49.399025
N -t 1.000636 -n 11 -e 49.399025
N -t 1.000636 -n 8 -e 49.399025
N -t 1.000636 -n 9 -e 49.399025
N -t 1.000636 -n 14 -e 49.399025
N -t 1.000636 -n 10 -e 49.399025
r -t 1.001483374 -Hs 2 -Hd -2 -Ni 2 -Nx 259.00 -Ny 380.00 -Nz 0.00 -Ne 49.399025 -Nl MAC -Nw --- -Ma 0 -Md ffffffff -Ms 5 -Mt 800 -Is 5.255 -Id -1.255 -It AODV -Il 48 -If 0 -Ii 0 -Iv 30 -P aodv -Pt 0x2 -Ph 1 -Pb 1 -Pd 9 -Pds 0 -Ps 5 -Pss 4 -Pc REQUEST 
r -t 1.001483390 -Hs 4 -Hd -2 -Ni 4 -Nx 313.00 -Ny 285.00 -Nz 0.00 -Ne 49.399025 -Nl MAC -Nw --- -Ma 0 -Md ffffffff -Ms 5 -Mt 800 -Is 5.255 -Id -1.255 -It AODV -Il 48 -If 0 -Ii 0 -Iv 30 -P aodv -Pt 0x2 -Ph 1 -Pb 1 -Pd 9 -Pds 0 -Ps 5 -Pss 4 -Pc REQUEST 
r -t 1.001483519 -Hs 13 -Hd -2 -Ni 13 -Nx 277.00 -Ny 154.00 -Nz 0.00 -Ne 49.399025 -Nl MAC -Nw --- -Ma 0 -Md ffffffff -Ms 5 -Mt 800 -Is 5.255 -Id -1.255 -It AODV -Il 48 -If 0 -Ii 0 -Iv 30 -P aodv -Pt 0x2 -Ph 1 -Pb 1 -Pd 9 -Pds 0 -Ps 5 -Pss 4 -Pc REQUEST 
r -t 1.001483610 -Hs 0 -Hd -2 -Ni 0 -Nx 198.00 -Ny 470.00 -Nz 0.00 -Ne 49.399025 -Nl MAC -Nw --- -Ma 0 -Md ffffffff -Ms 5 -Mt 800 -Is 5.255 -Id -1.255 -It AODV -Il 48 -If 0 -Ii 0 -Iv 30 -P aodv -Pt 0x2 -Ph 1 -Pb 1 -Pd 9 -Pds 0 -Ps 5 -Pss 4 -Pc REQUEST 
r -t 1.001483691 -Hs 3 -Hd -2 -Ni 3 -Nx 388.06 -Ny 364.96 -Nz 0.00 -Ne 49.399025 -Nl MAC -Nw --- -Ma 0 -Md ffffffff -Ms 5 -Mt 800 -Is 5.255 -Id -1.255 -It AODV -Il 48 -If 0 -Ii 0 -Iv 30 -P aodv -Pt 0x2 -Ph 1 -Pb 1 -Pd 9 -Pds 0 -Ps 5 -Pss 4 -Pc REQUEST 
r -t 1.001483808 -Hs 6 -Hd -2 -Ni 6 -Nx 436.00 -Ny 252.00 -Nz 0.00 -Ne 49.399025 -Nl MAC -Nw --- -Ma 0 -Md ffffffff -Ms 5 -Mt 800 -Is 5.255 -Id -1.255 -It AODV -Il 48 -If 0 -Ii 0 -Iv 30 -P aodv -Pt 0x2 -Ph 1 -Pb 1 -Pd 9 -Pds 0 -Ps 5 -Pss 4 -Pc REQUEST 
r -t 1.001483828 -Hs 1 -Hd -2 -Ni 1 -Nx 364.00 -Ny 470.00 -Nz 0.00 -Ne 49.399025 -Nl MAC -Nw --- -Ma 0 -Md ffffffff -Ms 5 -Mt 800 -Is 5.255 -Id -1.255 -It AODV -Il 48 -If 0 -Ii 0 -Iv 30 -P aodv -Pt 0x2 -Ph 1 -Pb 1 -Pd 9 -Pds 0 -Ps 5 -Pss 4 -Pc REQUEST 
r -t 1.001508374 -Hs 2 -Hd -2 -Ni 2 -Nx 259.00 -Ny 380.00 -Nz 0.00 -Ne 49.399025 -Nl RTR -Nw --- -Ma 0 -Md ffffffff -Ms 5 -Mt 800 -Is 5.255 -Id -1.255 -It AODV -Il 48 -If 0 -Ii 0 -Iv 30 -P aodv -Pt 0x2 -Ph 1 -Pb 1 -Pd 9 -Pds 0 -Ps 5 -Pss 4 -Pc REQUEST 
r -t 1.001508390 -Hs 4 -Hd -2 -Ni 4 -Nx 313.00 -Ny 285.00 -Nz 0.00 -Ne 49.399025 -Nl RTR -Nw --- -Ma 0 -Md ffffffff -Ms 5 -Mt 800 -Is 5.255 -Id -1.255 -It AODV -Il 48 -If 0 -Ii 0 -Iv 30 -P aodv -Pt 0x2 -Ph 1 -Pb 1 -Pd 9 -Pds 0 -Ps 5 -Pss 4 -Pc REQUEST 
r -t 1.001508519 -Hs 13 -Hd -2 -Ni 13 -Nx 277.00 -Ny 154.00 -Nz 0.00 -Ne 49.399025 -Nl RTR -Nw --- -Ma 0 -Md ffffffff -Ms 5 -Mt 800 -Is 5.255 -Id -1.255 -It AODV -Il 48 -If 0 -Ii 0 -Iv 30 -P aodv -Pt 0x2 -Ph 1 -Pb 1 -Pd 9 -Pds 0 -Ps 5 -Pss 4 -Pc REQUEST 
r -t 1.001508610 -Hs 0 -Hd -2 -Ni 0 -Nx 198.00 -Ny 470.00 -Nz 0.00 -Ne 49.399025 -Nl RTR -Nw --- -Ma 0 -Md ffffffff -Ms 5 -Mt 800 -Is 5.255 -Id -1.255 -It AODV -Il 48 -If 0 -Ii 0 -Iv 30 -P aodv -Pt 0x2 -Ph 1 -Pb 1 -Pd 9 -Pds 0 -Ps 5 -Pss 4 -Pc REQUEST 
r -t 1.001508691 -Hs 3 -Hd -2 -Ni 3 -Nx 388.07 -Ny 364.96 -Nz 0.00 -Ne 49.399025 -Nl RTR -Nw --- -Ma 0 -Md ffffffff -Ms 5 -Mt 800 -Is 5.255 -Id -1.255 -It AODV -Il 48 -If 0 -Ii 0 -Iv 30 -P aodv -Pt 0x2 -Ph 1 -Pb 1 -Pd 9 -Pds 0 -Ps 5 -Pss 4 -Pc REQUEST 
r -t 1.001508808 -Hs 6 -Hd -2 -Ni 6 -Nx 436.00 -Ny 252.00 -Nz 0.00 -Ne 49.399025 -Nl RTR -Nw --- -Ma 0 -Md ffffffff -Ms 5 -Mt 800 -Is 5.255 -Id -1.255 -It AODV -Il 48 -If 0 -Ii 0 -Iv 30 -P aodv -Pt 0x2 -Ph 1 -Pb 1 -Pd 9 -Pds 0 -Ps 5 -Pss 4 -Pc REQUEST 
r -t 1.001508828 -Hs 1 -Hd -2 -Ni 1 -Nx 364.00 -Ny 470.00 -Nz 0.00 -Ne 49.399025 -Nl RTR -Nw --- -Ma 0 -Md ffffffff -Ms 5 -Mt 800 -Is 5.255 -Id -1.255 -It AODV -Il 48 -If 0 -Ii 0 -Iv 30 -P aodv -Pt 0x2 -Ph 1 -Pb 1 -Pd 9 -Pds 0 -Ps 5 -Pss 4 -Pc REQUEST 
s -t 1.003854708 -Hs 3 -Hd -2 -Ni 3 -Nx 388.17 -Ny 364.90 -Nz 0.00 -Ne 49.399025 -Nl RTR -Nw --- -Ma 0 -Md ffffffff -Ms 5 -Mt 800 -Is 3.255 -Id -1.255 -It AODV -Il 48 -If 0 -Ii 0 -Iv 29 -P aodv -Pt 0x2 -Ph 2 -Pb 1 -Pd 9 -Pds 0 -Ps 5 -Pss 4 -Pc REQUEST 
s -t 1.004169708 -Hs 3 -Hd -2 -Ni 3 -Nx 388.18 -Ny 364.90 -Nz 0.00 -Ne 49.399025 -Nl MAC -Nw --- -Ma 0 -Md ffffffff -Ms 3 -Mt 800 -Is 3.255 -Id -1.255 -It AODV -Il 106 -If 0 -Ii 0 -Iv 29 -P aodv -Pt 0x2 -Ph 2 -Pb 1 -Pd 9 -Pds 0 -Ps 5 -Pss 4 -Pc REQUEST 
N -t 1.004170 -n 7 -e 49.396820
N -t 1.004170 -n 1 -e 49.396820
N -t 1.004170 -n 4 -e 49.396820
N -t 1.004170 -n 6 -e 49.396820
N -t 1.004170 -n 2 -e 49.396820
N -t 1.004170 -n 8 -e 49.396819
N -t 1.004170 -n 9 -e 49.396819
N -t 1.004170 -n 5 -e 49.396650
N -t 1.004170 -n 0 -e 49.396819
N -t 1.004170 -n 10 -e 49.396819
N -t 1.004170 -n 11 -e 49.396819
N -t 1.004170 -n 12 -e 49.396819
N -t 1.004171 -n 13 -e 49.396819
N -t 1.004171 -n 15 -e 49.396819
N -t 1.004171 -n 14 -e 49.396819
s -t 1.004599619 -Hs 1 -Hd -2 -Ni 1 -Nx 364.00 -Ny 470.00 -Nz 0.00 -Ne 49.396820 -Nl RTR -Nw --- -Ma 0 -Md ffffffff -Ms 5 -Mt 800 -Is 1.255 -Id -1.255 -It AODV -Il 48 -If 0 -Ii 0 -Iv 29 -P aodv -Pt 0x2 -Ph 2 -Pb 1 -Pd 9 -Pds 0 -Ps 5 -Pss 4 -Pc REQUEST 
s -t 1.004638137 -Hs 13 -Hd -2 -Ni 13 -Nx 277.00 -Ny 154.00 -Nz 0.00 -Ne 49.396819 -Nl RTR -Nw --- -Ma 0 -Md ffffffff -Ms 5 -Mt 800 -Is 13.255 -Id -1.255 -It AODV -Il 48 -If 0 -Ii 0 -Iv 29 -P aodv -Pt 0x2 -Ph 2 -Pb 1 -Pd 9 -Pds 0 -Ps 5 -Pss 4 -Pc REQUEST 
r -t 1.005018053 -Hs 7 -Hd -2 -Ni 7 -Nx 483.00 -Ny 406.00 -Nz 0.00 -Ne 49.396820 -Nl MAC -Nw --- -Ma 0 -Md ffffffff -Ms 3 -Mt 800 -Is 3.255 -Id -1.255 -It AODV -Il 48 -If 0 -Ii 0 -Iv 29 -P aodv -Pt 0x2 -Ph 2 -Pb 1 -Pd 9 -Pds 0 -Ps 5 -Pss 4 -Pc REQUEST 
r -t 1.005018068 -Hs 1 -Hd -2 -Ni 1 -Nx 364.00 -Ny 470.00 -Nz 0.00 -Ne 49.396820 -Nl MAC -Nw --- -Ma 0 -Md ffffffff -Ms 3 -Mt 800 -Is 3.255 -Id -1.255 -It AODV -Il 48 -If 0 -Ii 0 -Iv 29 -P aodv -Pt 0x2 -Ph 2 -Pb 1 -Pd 9 -Pds 0 -Ps 5 -Pss 4 -Pc REQUEST 
r -t 1.005018074 -Hs 4 -Hd -2 -Ni 4 -Nx 313.00 -Ny 285.00 -Nz 0.00 -Ne 49.396820 -Nl MAC -Nw --- -Ma 0 -Md ffffffff -Ms 3 -Mt 800 -Is 3.255 -Id -1.255 -It AODV -Il 48 -If 0 -Ii 0 -Iv 29 -P aodv -Pt 0x2 -Ph 2 -Pb 1 -Pd 9 -Pds 0 -Ps 5 -Pss 4 -Pc REQUEST 
r -t 1.005018117 -Hs 6 -Hd -2 -Ni 6 -Nx 436.00 -Ny 252.00 -Nz 0.00 -Ne 49.396820 -Nl MAC -Nw --- -Ma 0 -Md ffffffff -Ms 3 -Mt 800 -Is 3.255 -Id -1.255 -It AODV -Il 48 -If 0 -Ii 0 -Iv 29 -P aodv -Pt 0x2 -Ph 2 -Pb 1 -Pd 9 -Pds 0 -Ps 5 -Pss 4 -Pc REQUEST 
r -t 1.005018142 -Hs 2 -Hd -2 -Ni 2 -Nx 259.00 -Ny 380.00 -Nz 0.00 -Ne 49.396820 -Nl MAC -Nw --- -Ma 0 -Md ffffffff -Ms 3 -Mt 800 -Is 3.255 -Id -1.255 -It AODV -Il 48 -If 0 -Ii 0 -Iv 29 -P aodv -Pt 0x2 -Ph 2 -Pb 1 -Pd 9 -Pds 0 -Ps 5 -Pss 4 -Pc REQUEST 
r -t 1.005018330 -Hs 8 -Hd -2 -Ni 8 -Nx 534.00 -Ny 481.00 -Nz 0.00 -Ne 49.396819 -Nl MAC -Nw --- -Ma 0 -Md ffffffff -Ms 3 -Mt 800 -Is 3.255 -Id -1.255 -It AODV -Il 48 -If 0 -Ii 0 -Iv 29 -P aodv -Pt 0x2 -Ph 2 -Pb 1 -Pd 9 -Pds 0 -Ps 5 -Pss 4 -Pc REQUEST 
r -t 1.005018339 -Hs 9 -Hd -2 -Ni 9 -Nx 575.00 -Ny 394.00 -Nz 0.00 -Ne 49.396819 -Nl MAC -Nw --- -Ma 0 -Md ffffffff -Ms 3 -Mt 800 -Is 3.255 -Id -1.255 -It AODV -Il 48 -If 0 -Ii 0 -Iv 29 -P aodv -Pt 0x2 -Ph 2 -Pb 1 -Pd 9 -Pds 0 -Ps 5 -Pss 4 -Pc REQUEST 
r -t 1.005018400 -Hs 5 -Hd -2 -Ni 5 -Nx 196.00 -Ny 287.00 -Nz 0.00 -Ne 49.396650 -Nl MAC -Nw --- -Ma 0 -Md ffffffff -Ms 3 -Mt 800 -Is 3.255 -Id -1.255 -It AODV -Il 48 -If 0 -Ii 0 -Iv 29 -P aodv -Pt 0x2 -Ph 2 -Pb 1 -Pd 9 -Pds 0 -Ps 5 -Pss 4 -Pc REQUEST 
r -t 1.005018433 -Hs 0 -Hd -2 -Ni 0 -Nx 198.00 -Ny 470.00 -Nz 0.00 -Ne 49.396819 -Nl MAC -Nw --- -Ma 0 -Md ffffffff -Ms 3 -Mt 800 -Is 3.255 -Id -1.255 -It AODV -Il 48 -If 0 -Ii 0 -Iv 29 -P aodv -Pt 0x2 -Ph 2 -Pb 1 -Pd 9 -Pds 0 -Ps 5 -Pss 4 -Pc REQUEST 
r -t 1.005018442 -Hs 10 -Hd -2 -Ni 10 -Nx 597.00 -Ny 295.00 -Nz 0.00 -Ne 49.396819 -Nl MAC -Nw --- -Ma 0 -Md ffffffff -Ms 3 -Mt 800 -Is 3.255 -Id -1.255 -It AODV -Il 48 -If 0 -Ii 0 -Iv 29 -P aodv -Pt 0x2 -Ph 2 -Pb 1 -Pd 9 -Pds 0 -Ps 5 -Pss 4 -Pc REQUEST 
r -t 1.005018475 -Hs 11 -Hd -2 -Ni 11 -Nx 558.00 -Ny 210.00 -Nz 0.00 -Ne 49.396819 -Nl MAC -Nw --- -Ma 0 -Md ffffffff -Ms 3 -Mt 800 -Is 3.255 -Id -1.255 -It AODV -Il 48 -If 0 -Ii 0 -Iv 29 -P aodv -Pt 0x2 -Ph 2 -Pb 1 -Pd 9 -Pds 0 -Ps 5 -Pss 4 -Pc REQUEST 
r -t 1.005018487 -Hs 12 -Hd -2 -Ni 12 -Nx 423.00 -Ny 134.00 -Nz 0.00 -Ne 49.396819 -Nl MAC -Nw --- -Ma 0 -Md ffffffff -Ms 3 -Mt 800 -Is 3.255 -Id -1.255 -It AODV -Il 48 -If 0 -Ii 0 -Iv 29 -P aodv -Pt 0x2 -Ph 2 -Pb 1 -Pd 9 -Pds 0 -Ps 5 -Pss 4 -Pc REQUEST 
r -t 1.005018503 -Hs 13 -Hd -2 -Ni 13 -Nx 277.00 -Ny 154.00 -Nz 0.00 -Ne 49.396819 -Nl MAC -Nw --- -Ma 0 -Md ffffffff -Ms 3 -Mt 800 -Is 3.255 -Id -1.255 -It AODV -Il 48 -If 0 -Ii 0 -Iv 29 -P aodv -Pt 0x2 -Ph 2 -Pb 1 -Pd 9 -Pds 0 -Ps 5 -Pss 4 -Pc REQUEST 
r -t 1.005043053 -Hs 7 -Hd -2 -Ni 7 -Nx 483.00 -Ny 406.00 -Nz 0.00 -Ne 49.396820 -Nl RTR -Nw --- -Ma 0 -Md ffffffff -Ms 3 -Mt 800 -Is 3.255 -Id -1.255 -It AODV -Il 48 -If 0 -Ii 0 -Iv 29 -P aodv -Pt 0x2 -Ph 2 -Pb 1 -Pd 9 -Pds 0 -Ps 5 -Pss 4 -Pc REQUEST 
r -t 1.005043068 -Hs 1 -Hd -2 -Ni 1 -Nx 364.00 -Ny 470.00 -Nz 0.00 -Ne 49.396820 -Nl RTR -Nw --- -Ma 0 -Md ffffffff -Ms 3 -Mt 800 -Is 3.255 -Id -1.255 -It AODV -Il 48 -If 0 -Ii 0 -Iv 29 -P aodv -Pt 0x2 -Ph 2 -Pb 1 -Pd 9 -Pds 0 -Ps 5 -Pss 4 -Pc REQUEST 
r -t 1.005043074 -Hs 4 -Hd -2 -Ni 4 -Nx 313.00 -Ny 285.00 -Nz 0.00 -Ne 49.396820 -Nl RTR -Nw --- -Ma 0 -Md ffffffff -Ms 3 -Mt 800 -Is 3.255 -Id -1.255 -It AODV -Il 48 -If 0 -Ii 0 -Iv 29 -P aodv -Pt 0x2 -Ph 2 -Pb 1 -Pd 9 -Pds 0 -Ps 5 -Pss 4 -Pc REQUEST 
r -t 1.005043117 -Hs 6 -Hd -2 -Ni 6 -Nx 436.00 -Ny 252.00 -Nz 0.00 -Ne 49.396820 -Nl RTR -Nw --- -Ma 0 -Md ffffffff -Ms 3 -Mt 800 -Is 3.255 -Id -1.255 -It AODV -Il 48 -If 0 -Ii 0 -Iv 29 -P aodv -Pt 0x2 -Ph 2 -Pb 1 -Pd 9 -Pds 0 -Ps 5 -Pss 4 -Pc REQUEST 
r -t 1.005043142 -Hs 2 -Hd -2 -Ni 2 -Nx 259.00 -Ny 380.00 -Nz 0.00 -Ne 49.396820 -Nl RTR -Nw --- -Ma 0 -Md ffffffff -Ms 3 -Mt 800 -Is 3.255 -Id -1.255 -It AODV -Il 48 -If 0 -Ii 0 -Iv 29 -P aodv -Pt 0x2 -Ph 2 -Pb 1 -Pd 9 -Pds 0 -Ps 5 -Pss 4 -Pc REQUEST 
r -t 1.005043330 -Hs 8 -Hd -2 -Ni 8 -Nx 534.00 -Ny 481.00 -Nz 0.00 -Ne 49.396819 -Nl RTR -Nw --- -Ma 0 -Md ffffffff -Ms 3 -Mt 800 -Is 3.255 -Id -1.255 -It AODV -Il 48 -If 0 -Ii 0 -Iv 29 -P aodv -Pt 0x2 -Ph 2 -Pb 1 -Pd 9 -Pds 0 -Ps 5 -Pss 4 -Pc REQUEST 
r -t 1.005043339 -Hs 9 -Hd -2 -Ni 9 -Nx 575.00 -Ny 394.00 -Nz 0.00 -Ne 49.396819 -Nl RTR -Nw --- -Ma 0 -Md ffffffff -Ms 3 -Mt 800 -Is 3.255 -Id -1.255 -It AODV -Il 48 -If 0 -Ii 0 -Iv 29 -P aodv -Pt 0x2 -Ph 2 -Pb 1 -Pd 9 -Pds 0 -Ps 5 -Pss 4 -Pc REQUEST 
s -t 1.005043339 -Hs 9 -Hd 3 -Ni 9 -Nx 575.00 -Ny 394.00 -Nz 0.00 -Ne 49.396819 -Nl RTR -Nw --- -Ma 0 -Md 0 -Ms 0 -Mt 0 -Is 9.255 -Id 5.255 -It AODV -Il 44 -If 0 -Ii 0 -Iv 30 -P aodv -Pt 0x4 -Ph 1 -Pd 9 -Pds 4 -Pl 10.000000 -Pc REPLY 
r -t 1.005043400 -Hs 5 -Hd -2 -Ni 5 -Nx 196.00 -Ny 287.00 -Nz 0.00 -Ne 49.396650 -Nl RTR -Nw --- -Ma 0 -Md ffffffff -Ms 3 -Mt 800 -Is 3.255 -Id -1.255 -It AODV -Il 48 -If 0 -Ii 0 -Iv 29 -P aodv -Pt 0x2 -Ph 2 -Pb 1 -Pd 9 -Pds 0 -Ps 5 -Pss 4 -Pc REQUEST 
r -t 1.005043433 -Hs 0 -Hd -2 -Ni 0 -Nx 198.00 -Ny 470.00 -Nz 0.00 -Ne 49.396819 -Nl RTR -Nw --- -Ma 0 -Md ffffffff -Ms 3 -Mt 800 -Is 3.255 -Id -1.255 -It AODV -Il 48 -If 0 -Ii 0 -Iv 29 -P aodv -Pt 0x2 -Ph 2 -Pb 1 -Pd 9 -Pds 0 -Ps 5 -Pss 4 -Pc REQUEST 
r -t 1.005043442 -Hs 10 -Hd -2 -Ni 10 -Nx 597.00 -Ny 295.00 -Nz 0.00 -Ne 49.396819 -Nl RTR -Nw --- -Ma 0 -Md ffffffff -Ms 3 -Mt 800 -Is 3.255 -Id -1.255 -It AODV -Il 48 -If 0 -Ii 0 -Iv 29 -P aodv -Pt 0x2 -Ph 2 -Pb 1 -Pd 9 -Pds 0 -Ps 5 -Pss 4 -Pc REQUEST 
r -t 1.005043475 -Hs 11 -Hd -2 -Ni 11 -Nx 558.00 -Ny 210.00 -Nz 0.00 -Ne 49.396819 -Nl RTR -Nw --- -Ma 0 -Md ffffffff -Ms 3 -Mt 800 -Is 3.255 -Id -1.255 -It AODV -Il 48 -If 0 -Ii 0 -Iv 29 -P aodv -Pt 0x2 -Ph 2 -Pb 1 -Pd 9 -Pds 0 -Ps 5 -Pss 4 -Pc REQUEST 
r -t 1.005043487 -Hs 12 -Hd -2 -Ni 12 -Nx 423.00 -Ny 134.00 -Nz 0.00 -Ne 49.396819 -Nl RTR -Nw --- -Ma 0 -Md ffffffff -Ms 3 -Mt 800 -Is 3.255 -Id -1.255 -It AODV -Il 48 -If 0 -Ii 0 -Iv 29 -P aodv -Pt 0x2 -Ph 2 -Pb 1 -Pd 9 -Pds 0 -Ps 5 -Pss 4 -Pc REQUEST 
r -t 1.005043503 -Hs 13 -Hd -2 -Ni 13 -Nx 277.00 -Ny 154.00 -Nz 0.00 -Ne 49.396819 -Nl RTR -Nw --- -Ma 0 -Md ffffffff -Ms 3 -Mt 800 -Is 3.255 -Id -1.255 -It AODV -Il 48 -If 0 -Ii 0 -Iv 29 -P aodv -Pt 0x2 -Ph 2 -Pb 1 -Pd 9 -Pds 0 -Ps 5 -Pss 4 -Pc REQUEST 
s -t 1.005108068 -Hs 1 -Hd -2 -Ni 1 -Nx 364.00 -Ny 470.00 -Nz 0.00 -Ne 49.396820 -Nl MAC -Nw --- -Ma 0 -Md ffffffff -Ms 1 -Mt 800 -Is 1.255 -Id -1.255 -It AODV -Il 106 -If 0 -Ii 0 -Iv 29 -P aodv -Pt 0x2 -Ph 2 -Pb 1 -Pd 9 -Pds 0 -Ps 5 -Pss 4 -Pc REQUEST 
N -t 1.005108 -n 3 -e 49.396002
N -t 1.005109 -n 7 -e 49.396172
N -t 1.005109 -n 2 -e 49.396172
N -t 1.005109 -n 0 -e 49.396172
N -t 1.005109 -n 8 -e 49.396172
N -t 1.005109 -n 4 -e 49.396172
N -t 1.005109 -n 9 -e 49.396172
N -t 1.005109 -n 6 -e 49.396172
N -t 1.005109 -n 5 -e 49.396002
N -t 1.005109 -n 10 -e 49.396171
N -t 1.005109 -n 11 -e 49.396171
N -t 1.005109 -n 13 -e 49.396171
N -t 1.005109 -n 12 -e 49.396171
N -t 1.005109 -n 15 -e 49.396171
N -t 1.005109 -n 14 -e 49.396171
s -t 1.005920108 -Hs 2 -Hd -2 -Ni 2 -Nx 259.00 -Ny 380.00 -Nz 0.00 -Ne 49.396172 -Nl RTR -Nw --- -Ma 0 -Md ffffffff -Ms 5 -Mt 800 -Is 2.255 -Id -1.255 -It AODV -Il 48 -If 0 -Ii 0 -Iv 29 -P aodv -Pt 0x2 -Ph 2 -Pb 1 -Pd 9 -Pds 0 -Ps 5 -Pss 4 -Pc REQUEST 
r -t 1.005956427 -Hs 3 -Hd -2 -Ni 3 -Nx 388.26 -Ny 364.85 -Nz 0.00 -Ne 49.396002 -Nl MAC -Nw --- -Ma 0 -Md ffffffff -Ms 1 -Mt 800 -Is 1.255 -Id -1.255 -It AODV -Il 48 -If 0 -Ii 0 -Iv 29 -P aodv -Pt 0x2 -Ph 2 -Pb 1 -Pd 9 -Pds 0 -Ps 5 -Pss 4 -Pc REQUEST 
r -t 1.005956518 -Hs 7 -Hd -2 -Ni 7 -Nx 483.00 -Ny 406.00 -Nz 0.00 -Ne 49.396172 -Nl MAC -Nw --- -Ma 0 -Md ffffffff -Ms 1 -Mt 800 -Is 1.255 -Id -1.255 -It AODV -Il 48 -If 0 -Ii 0 -Iv 29 -P aodv -Pt 0x2 -Ph 2 -Pb 1 -Pd 9 -Pds 0 -Ps 5 -Pss 4 -Pc REQUEST 
r -t 1.005956529 -Hs 2 -Hd -2 -Ni 2 -Nx 259.00 -Ny 380.00 -Nz 0.00 -Ne 49.396172 -Nl MAC -Nw --- -Ma 0 -Md ffffffff -Ms 1 -Mt 800 -Is 1.255 -Id -1.255 -It AODV -Il 48 -If 0 -Ii 0 -Iv 29 -P aodv -Pt 0x2 -Ph 2 -Pb 1 -Pd 9 -Pds 0 -Ps 5 -Pss 4 -Pc REQUEST 
r -t 1.005956621 -Hs 0 -Hd -2 -Ni 0 -Nx 198.00 -Ny 470.00 -Nz 0.00 -Ne 49.396172 -Nl MAC -Nw --- -Ma 0 -Md ffffffff -Ms 1 -Mt 800 -Is 1.255 -Id -1.255 -It AODV -Il 48 -If 0 -Ii 0 -Iv 29 -P aodv -Pt 0x2 -Ph 2 -Pb 1 -Pd 9 -Pds 0 -Ps 5 -Pss 4 -Pc REQUEST 
r -t 1.005956636 -Hs 8 -Hd -2 -Ni 8 -Nx 534.00 -Ny 481.00 -Nz 0.00 -Ne 49.396172 -Nl MAC -Nw --- -Ma 0 -Md ffffffff -Ms 1 -Mt 800 -Is 1.255 -Id -1.255 -It AODV -Il 48 -If 0 -Ii 0 -Iv 29 -P aodv -Pt 0x2 -Ph 2 -Pb 1 -Pd 9 -Pds 0 -Ps 5 -Pss 4 -Pc REQUEST 
r -t 1.005956708 -Hs 4 -Hd -2 -Ni 4 -Nx 313.00 -Ny 285.00 -Nz 0.00 -Ne 49.396172 -Nl MAC -Nw --- -Ma 0 -Md ffffffff -Ms 1 -Mt 800 -Is 1.255 -Id -1.255 -It AODV -Il 48 -If 0 -Ii 0 -Iv 29 -P aodv -Pt 0x2 -Ph 2 -Pb 1 -Pd 9 -Pds 0 -Ps 5 -Pss 4 -Pc REQUEST 
r -t 1.005956815 -Hs 9 -Hd -2 -Ni 9 -Nx 575.00 -Ny 394.00 -Nz 0.00 -Ne 49.396172 -Nl MAC -Nw --- -Ma 0 -Md ffffffff -Ms 1 -Mt 800 -Is 1.255 -Id -1.255 -It AODV -Il 48 -If 0 -Ii 0 -Iv 29 -P aodv -Pt 0x2 -Ph 2 -Pb 1 -Pd 9 -Pds 0 -Ps 5 -Pss 4 -Pc REQUEST 
r -t 1.005956833 -Hs 6 -Hd -2 -Ni 6 -Nx 436.00 -Ny 252.00 -Nz 0.00 -Ne 49.396172 -Nl MAC -Nw --- -Ma 0 -Md ffffffff -Ms 1 -Mt 800 -Is 1.255 -Id -1.255 -It AODV -Il 48 -If 0 -Ii 0 -Iv 29 -P aodv -Pt 0x2 -Ph 2 -Pb 1 -Pd 9 -Pds 0 -Ps 5 -Pss 4 -Pc REQUEST 
r -t 1.005956896 -Hs 5 -Hd -2 -Ni 5 -Nx 196.00 -Ny 287.00 -Nz 0.00 -Ne 49.396002 -Nl MAC -Nw --- -Ma 0 -Md ffffffff -Ms 1 -Mt 800 -Is 1.255 -Id -1.255 -It AODV -Il 48 -If 0 -Ii 0 -Iv 29 -P aodv -Pt 0x2 -Ph 2 -Pb 1 -Pd 9 -Pds 0 -Ps 5 -Pss 4 -Pc REQUEST 
r -t 1.005981427 -Hs 3 -Hd -2 -Ni 3 -Nx 388.26 -Ny 364.85 -Nz 0.00 -Ne 49.396002 -Nl RTR -Nw --- -Ma 0 -Md ffffffff -Ms 1 -Mt 800 -Is 1.255 -Id -1.255 -It AODV -Il 48 -If 0 -Ii 0 -Iv 29 -P aodv -Pt 0x2 -Ph 2 -Pb 1 -Pd 9 -Pds 0 -Ps 5 -Pss 4 -Pc REQUEST 
r -t 1.005981518 -Hs 7 -Hd -2 -Ni 7 -Nx 483.00 -Ny 406.00 -Nz 0.00 -Ne 49.396172 -Nl RTR -Nw --- -Ma 0 -Md ffffffff -Ms 1 -Mt 800 -Is 1.255 -Id -1.255 -It AODV -Il 48 -If 0 -Ii 0 -Iv 29 -P aodv -Pt 0x2 -Ph 2 -Pb 1 -Pd 9 -Pds 0 -Ps 5 -Pss 4 -Pc REQUEST 
r -t 1.005981529 -Hs 2 -Hd -2 -Ni 2 -Nx 259.00 -Ny 380.00 -Nz 0.00 -Ne 49.396172 -Nl RTR -Nw --- -Ma 0 -Md ffffffff -Ms 1 -Mt 800 -Is 1.255 -Id -1.255 -It AODV -Il 48 -If 0 -Ii 0 -Iv 29 -P aodv -Pt 0x2 -Ph 2 -Pb 1 -Pd 9 -Pds 0 -Ps 5 -Pss 4 -Pc REQUEST 
r -t 1.005981621 -Hs 0 -Hd -2 -Ni 0 -Nx 198.00 -Ny 470.00 -Nz 0.00 -Ne 49.396172 -Nl RTR -Nw --- -Ma 0 -Md ffffffff -Ms 1 -Mt 800 -Is 1.255 -Id -1.255 -It AODV -Il 48 -If 0 -Ii 0 -Iv 29 -P aodv -Pt 0x2 -Ph 2 -Pb 1 -Pd 9 -Pds 0 -Ps 5 -Pss 4 -Pc REQUEST 
r -t 1.005981636 -Hs 8 -Hd -2 -Ni 8 -Nx 534.00 -Ny 481.00 -Nz 0.00 -Ne 49.396172 -Nl RTR -Nw --- -Ma 0 -Md ffffffff -Ms 1 -Mt 800 -Is 1.255 -Id -1.255 -It AODV -Il 48 -If 0 -Ii 0 -Iv 29 -P aodv -Pt 0x2 -Ph 2 -Pb 1 -Pd 9 -Pds 0 -Ps 5 -Pss 4 -Pc REQUEST 
r -t 1.005981708 -Hs 4 -Hd -2 -Ni 4 -Nx 313.00 -Ny 285.00 -Nz 0.00 -Ne 49.396172 -Nl RTR -Nw --- -Ma 0 -Md ffffffff -Ms 1 -Mt 800 -Is 1.255 -Id -1.255 -It AODV -Il 48 -If 0 -Ii 0 -Iv 29 -P aodv -Pt 0x2 -Ph 2 -Pb 1 -Pd 9 -Pds 0 -Ps 5 -Pss 4 -Pc REQUEST 
r -t 1.005981815 -Hs 9 -Hd -2 -Ni 9 -Nx 575.00 -Ny 394.00 -Nz 0.00 -Ne 49.396172 -Nl RTR -Nw --- -Ma 0 -Md ffffffff -Ms 1 -Mt 800 -Is 1.255 -Id -1.255 -It AODV -Il 48 -If 0 -Ii 0 -Iv 29 -P aodv -Pt 0x2 -Ph 2 -Pb 1 -Pd 9 -Pds 0 -Ps 5 -Pss 4 -Pc REQUEST 
r -t 1.005981833 -Hs 6 -Hd -2 -Ni 6 -Nx 436.00 -Ny 252.00 -Nz 0.00 -Ne 49.396172 -Nl RTR -Nw --- -Ma 0 -Md ffffffff -Ms 1 -Mt 800 -Is 1.255 -Id -1.255 -It AODV -Il 48 -If 0 -Ii 0 -Iv 29 -P aodv -Pt 0x2 -Ph 2 -Pb 1 -Pd 9 -Pds 0 -Ps 5 -Pss 4 -Pc REQUEST 
r -t 1.005981896 -Hs 5 -Hd -2 -Ni 5 -Nx 196.00 -Ny 287.00 -Nz 0.00 -Ne 49.396002 -Nl RTR -Nw --- -Ma 0 -Md ffffffff -Ms 1 -Mt 800 -Is 1.255 -Id -1.255 -It AODV -Il 48 -If 0 -Ii 0 -Iv 29 -P aodv -Pt 0x2 -Ph 2 -Pb 1 -Pd 9 -Pds 0 -Ps 5 -Pss 4 -Pc REQUEST 
s -t 1.005984875 -Hs 12 -Hd -2 -Ni 12 -Nx 423.00 -Ny 134.00 -Nz 0.00 -Ne 49.396171 -Nl RTR -Nw --- -Ma 0 -Md ffffffff -Ms 3 -Mt 800 -Is 12.255 -Id -1.255 -It AODV -Il 48 -If 0 -Ii 0 -Iv 28 -P aodv -Pt 0x2 -Ph 3 -Pb 1 -Pd 9 -Pds 0 -Ps 5 -Pss 4 -Pc REQUEST 
s -t 1.006181135 -Hs 7 -Hd -2 -Ni 7 -Nx 483.00 -Ny 406.00 -Nz 0.00 -Ne 49.396172 -Nl RTR -Nw --- -Ma 0 -Md ffffffff -Ms 3 -Mt 800 -Is 7.255 -Id -1.255 -It AODV -Il 48 -If 0 -Ii 0 -Iv 28 -P aodv -Pt 0x2 -Ph 3 -Pb 1 -Pd 9 -Pds 0 -Ps 5 -Pss 4 -Pc REQUEST 
s -t 1.006206529 -Hs 2 -Hd -2 -Ni 2 -Nx 259.00 -Ny 380.00 -Nz 0.00 -Ne 49.396172 -Nl MAC -Nw --- -Ma 0 -Md ffffffff -Ms 2 -Mt 800 -Is 2.255 -Id -1.255 -It AODV -Il 106 -If 0 -Ii 0 -Iv 29 -P aodv -Pt 0x2 -Ph 2 -Pb 1 -Pd 9 -Pds 0 -Ps 5 -Pss 4 -Pc REQUEST 
N -t 1.006207 -n 0 -e 49.395428
N -t 1.006207 -n 4 -e 49.395428
N -t 1.006207 -n 5 -e 49.395258
N -t 1.006207 -n 3 -e 49.395258
N -t 1.006207 -n 1 -e 49.395258
N -t 1.006207 -n 6 -e 49.395428
N -t 1.006207 -n 7 -e 49.395428
N -t 1.006207 -n 13 -e 49.395428
N -t 1.006208 -n 8 -e 49.395427
N -t 1.006208 -n 12 -e 49.395427
N -t 1.006208 -n 9 -e 49.395427
N -t 1.006208 -n 15 -e 49.395427
N -t 1.006208 -n 11 -e 49.395427
N -t 1.006208 -n 10 -e 49.395427
N -t 1.006208 -n 14 -e 49.395427
s -t 1.006791527 -Hs 11 -Hd -2 -Ni 11 -Nx 558.00 -Ny 210.00 -Nz 0.00 -Ne 49.395427 -Nl RTR -Nw --- -Ma 0 -Md ffffffff -Ms 3 -Mt 800 -Is 11.255 -Id -1.255 -It AODV -Il 48 -If 0 -Ii 0 -Iv 28 -P aodv -Pt 0x2 -Ph 3 -Pb 1 -Pd 9 -Pds 0 -Ps 5 -Pss 4 -Pc REQUEST 
r -t 1.007054891 -Hs 0 -Hd -2 -Ni 0 -Nx 198.00 -Ny 470.00 -Nz 0.00 -Ne 49.395428 -Nl MAC -Nw --- -Ma 0 -Md ffffffff -Ms 2 -Mt 800 -Is 2.255 -Id -1.255 -It AODV -Il 48 -If 0 -Ii 0 -Iv 29 -P aodv -Pt 0x2 -Ph 2 -Pb 1 -Pd 9 -Pds 0 -Ps 5 -Pss 4 -Pc REQUEST 
r -t 1.007054893 -Hs 4 -Hd -2 -Ni 4 -Nx 313.00 -Ny 285.00 -Nz 0.00 -Ne 49.395428 -Nl MAC -Nw --- -Ma 0 -Md ffffffff -Ms 2 -Mt 800 -Is 2.255 -Id -1.255 -It AODV -Il 48 -If 0 -Ii 0 -Iv 29 -P aodv -Pt 0x2 -Ph 2 -Pb 1 -Pd 9 -Pds 0 -Ps 5 -Pss 4 -Pc REQUEST 
r -t 1.007054903 -Hs 5 -Hd -2 -Ni 5 -Nx 196.00 -Ny 287.00 -Nz 0.00 -Ne 49.395258 -Nl MAC -Nw --- -Ma 0 -Md ffffffff -Ms 2 -Mt 800 -Is 2.255 -Id -1.255 -It AODV -Il 48 -If 0 -Ii 0 -Iv 29 -P aodv -Pt 0x2 -Ph 2 -Pb 1 -Pd 9 -Pds 0 -Ps 5 -Pss 4 -Pc REQUEST 
r -t 1.007054963 -Hs 3 -Hd -2 -Ni 3 -Nx 388.31 -Ny 364.82 -Nz 0.00 -Ne 49.395258 -Nl MAC -Nw --- -Ma 0 -Md ffffffff -Ms 2 -Mt 800 -Is 2.255 -Id -1.255 -It AODV -Il 48 -If 0 -Ii 0 -Iv 29 -P aodv -Pt 0x2 -Ph 2 -Pb 1 -Pd 9 -Pds 0 -Ps 5 -Pss 4 -Pc REQUEST 
r -t 1.007054990 -Hs 1 -Hd -2 -Ni 1 -Nx 364.00 -Ny 470.00 -Nz 0.00 -Ne 49.395258 -Nl MAC -Nw --- -Ma 0 -Md ffffffff -Ms 2 -Mt 800 -Is 2.255 -Id -1.255 -It AODV -Il 48 -If 0 -Ii 0 -Iv 29 -P aodv -Pt 0x2 -Ph 2 -Pb 1 -Pd 9 -Pds 0 -Ps 5 -Pss 4 -Pc REQUEST 
r -t 1.007055257 -Hs 6 -Hd -2 -Ni 6 -Nx 436.00 -Ny 252.00 -Nz 0.00 -Ne 49.395428 -Nl MAC -Nw --- -Ma 0 -Md ffffffff -Ms 2 -Mt 800 -Is 2.255 -Id -1.255 -It AODV -Il 48 -If 0 -Ii 0 -Iv 29 -P aodv -Pt 0x2 -Ph 2 -Pb 1 -Pd 9 -Pds 0 -Ps 5 -Pss 4 -Pc REQUEST 
r -t 1.007055281 -Hs 7 -Hd -2 -Ni 7 -Nx 483.00 -Ny 406.00 -Nz 0.00 -Ne 49.395428 -Nl MAC -Nw --- -Ma 0 -Md ffffffff -Ms 2 -Mt 800 -Is 2.255 -Id -1.255 -It AODV -Il 48 -If 0 -Ii 0 -Iv 29 -P aodv -Pt 0x2 -Ph 2 -Pb 1 -Pd 9 -Pds 0 -Ps 5 -Pss 4 -Pc REQUEST 
r -t 1.007055285 -Hs 13 -Hd -2 -Ni 13 -Nx 277.00 -Ny 154.00 -Nz 0.00 -Ne 49.395428 -Nl MAC -Nw --- -Ma 0 -Md ffffffff -Ms 2 -Mt 800 -Is 2.255 -Id -1.255 -It AODV -Il 48 -If 0 -Ii 0 -Iv 29 -P aodv -Pt 0x2 -Ph 2 -Pb 1 -Pd 9 -Pds 0 -Ps 5 -Pss 4 -Pc REQUEST 
r -t 1.007079891 -Hs 0 -Hd -2 -Ni 0 -Nx 198.00 -Ny 470.00 -Nz 0.00 -Ne 49.395428 -Nl RTR -Nw --- -Ma 0 -Md ffffffff -Ms 2 -Mt 800 -Is 2.255 -Id -1.255 -It AODV -Il 48 -If 0 -Ii 0 -Iv 29 -P aodv -Pt 0x2 -Ph 2 -Pb 1 -Pd 9 -Pds 0 -Ps 5 -Pss 4 -Pc REQUEST 
r -t 1.007079893 -Hs 4 -Hd -2 -Ni 4 -Nx 313.00 -Ny 285.00 -Nz 0.00 -Ne 49.395428 -Nl RTR -Nw --- -Ma 0 -Md ffffffff -Ms 2 -Mt 800 -Is 2.255 -Id -1.255 -It AODV -Il 48 -If 0 -Ii 0 -Iv 29 -P aodv -Pt 0x2 -Ph 2 -Pb 1 -Pd 9 -Pds 0 -Ps 5 -Pss 4 -Pc REQUEST 
r -t 1.007079903 -Hs 5 -Hd -2 -Ni 5 -Nx 196.00 -Ny 287.00 -Nz 0.00 -Ne 49.395258 -Nl RTR -Nw --- -Ma 0 -Md ffffffff -Ms 2 -Mt 800 -Is 2.255 -Id -1.255 -It AODV -Il 48 -If 0 -Ii 0 -Iv 29 -P aodv -Pt 0x2 -Ph 2 -Pb 1 -Pd 9 -Pds 0 -Ps 5 -Pss 4 -Pc REQUEST 
r -t 1.007079963 -Hs 3 -Hd -2 -Ni 3 -Nx 388.31 -Ny 364.82 -Nz 0.00 -Ne 49.395258 -Nl RTR -Nw --- -Ma 0 -Md ffffffff -Ms 2 -Mt 800 -Is 2.255 -Id -1.255 -It AODV -Il 48 -If 0 -Ii 0 -Iv 29 -P aodv -Pt 0x2 -Ph 2 -Pb 1 -Pd 9 -Pds 0 -Ps 5 -Pss 4 -Pc REQUEST 
r -t 1.007079990 -Hs 1 -Hd -2 -Ni 1 -Nx 364.00 -Ny 470.00 -Nz 0.00 -Ne 49.395258 -Nl RTR -Nw --- -Ma 0 -Md ffffffff -Ms 2 -Mt 800 -Is 2.255 -Id -1.255 -It AODV -Il 48 -If 0 -Ii 0 -Iv 29 -P aodv -Pt 0x2 -Ph 2 -Pb 1 -Pd 9 -Pds 0 -Ps 5 -Pss 4 -Pc REQUEST 
r -t 1.007080257 -Hs 6 -Hd -2 -Ni 6 -Nx 436.00 -Ny 252.00 -Nz 0.00 -Ne 49.395428 -Nl RTR -Nw --- -Ma 0 -Md ffffffff -Ms 2 -Mt 800 -Is 2.255 -Id -1.255 -It AODV -Il 48 -If 0 -Ii 0 -Iv 29 -P aodv -Pt 0x2 -Ph 2 -Pb 1 -Pd 9 -Pds 0 -Ps 5 -Pss 4 -Pc REQUEST 
r -t 1.007080281 -Hs 7 -Hd -2 -Ni 7 -Nx 483.00 -Ny 406.00 -Nz 0.00 -Ne 49.395428 -Nl RTR -Nw --- -Ma 0 -Md ffffffff -Ms 2 -Mt 800 -Is 2.255 -Id -1.255 -It AODV -Il 48 -If 0 -Ii 0 -Iv 29 -P aodv -Pt 0x2 -Ph 2 -Pb 1 -Pd 9 -Pds 0 -Ps 5 -Pss 4 -Pc REQUEST 
r -t 1.007080285 -Hs 13 -Hd -2 -Ni 13 -Nx 277.00 -Ny 154.00 -Nz 0.00 -Ne 49.395428 -Nl RTR -Nw --- -Ma 0 -Md ffffffff -Ms 2 -Mt 800 -Is 2.255 -Id -1.255 -It AODV -Il 48 -If 0 -Ii 0 -Iv 29 -P aodv -Pt 0x2 -Ph 2 -Pb 1 -Pd 9 -Pds 0 -Ps 5 -Pss 4 -Pc REQUEST 
s -t 1.007345281 -Hs 7 -Hd -2 -Ni 7 -Nx 483.00 -Ny 406.00 -Nz 0.00 -Ne 49.395428 -Nl MAC -Nw --- -Ma 0 -Md ffffffff -Ms 7 -Mt 800 -Is 7.255 -Id -1.255 -It AODV -Il 106 -If 0 -Ii 0 -Iv 28 -P aodv -Pt 0x2 -Ph 3 -Pb 1 -Pd 9 -Pds 0 -Ps 5 -Pss 4 -Pc REQUEST 
N -t 1.007346 -n 8 -e 49.394660
N -t 1.007346 -n 9 -e 49.394660
N -t 1.007346 -n 3 -e 49.394490
N -t 1.007346 -n 1 -e 49.394490
N -t 1.007346 -n 10 -e 49.394660
N -t 1.007346 -n 6 -e 49.394660
N -t 1.007346 -n 4 -e 49.394660
N -t 1.007346 -n 11 -e 49.394660
N -t 1.007346 -n 2 -e 49.394490
N -t 1.007346 -n 12 -e 49.394659
N -t 1.007346 -n 0 -e 49.394659
N -t 1.007346 -n 14 -e 49.394659
N -t 1.007346 -n 5 -e 49.394490
N -t 1.007346 -n 13 -e 49.394659
N -t 1.007346 -n 15 -e 49.394659
s -t 1.007897460 -Hs 6 -Hd -2 -Ni 6 -Nx 436.00 -Ny 252.00 -Nz 0.00 -Ne 49.394660 -Nl RTR -Nw --- -Ma 0 -Md ffffffff -Ms 5 -Mt 800 -Is 6.255 -Id -1.255 -It AODV -Il 48 -If 0 -Ii 0 -Iv 29 -P aodv -Pt 0x2 -Ph 2 -Pb 1 -Pd 9 -Pds 0 -Ps 5 -Pss 4 -Pc REQUEST 
r -t 1.008193583 -Hs 8 -Hd -2 -Ni 8 -Nx 534.00 -Ny 481.00 -Nz 0.00 -Ne 49.394660 -Nl MAC -Nw --- -Ma 0 -Md ffffffff -Ms 7 -Mt 800 -Is 7.255 -Id -1.255 -It AODV -Il 48 -If 0 -Ii 0 -Iv 28 -P aodv -Pt 0x2 -Ph 3 -Pb 1 -Pd 9 -Pds 0 -Ps 5 -Pss 4 -Pc REQUEST 
r -t 1.008193590 -Hs 9 -Hd -2 -Ni 9 -Nx 575.00 -Ny 394.00 -Nz 0.00 -Ne 49.394660 -Nl MAC -Nw --- -Ma 0 -Md ffffffff -Ms 7 -Mt 800 -Is 7.255 -Id -1.255 -It AODV -Il 48 -If 0 -Ii 0 -Iv 28 -P aodv -Pt 0x2 -Ph 3 -Pb 1 -Pd 9 -Pds 0 -Ps 5 -Pss 4 -Pc REQUEST 
r -t 1.008193625 -Hs 3 -Hd -2 -Ni 3 -Nx 388.35 -Ny 364.79 -Nz 0.00 -Ne 49.394490 -Nl MAC -Nw --- -Ma 0 -Md ffffffff -Ms 7 -Mt 800 -Is 7.255 -Id -1.255 -It AODV -Il 48 -If 0 -Ii 0 -Iv 28 -P aodv -Pt 0x2 -Ph 3 -Pb 1 -Pd 9 -Pds 0 -Ps 5 -Pss 4 -Pc REQUEST 
r -t 1.008193731 -Hs 1 -Hd -2 -Ni 1 -Nx 364.00 -Ny 470.00 -Nz 0.00 -Ne 49.394490 -Nl MAC -Nw --- -Ma 0 -Md ffffffff -Ms 7 -Mt 800 -Is 7.255 -Id -1.255 -It AODV -Il 48 -If 0 -Ii 0 -Iv 28 -P aodv -Pt 0x2 -Ph 3 -Pb 1 -Pd 9 -Pds 0 -Ps 5 -Pss 4 -Pc REQUEST 
r -t 1.008193811 -Hs 10 -Hd -2 -Ni 10 -Nx 597.00 -Ny 295.00 -Nz 0.00 -Ne 49.394660 -Nl MAC -Nw --- -Ma 0 -Md ffffffff -Ms 7 -Mt 800 -Is 7.255 -Id -1.255 -It AODV -Il 48 -If 0 -Ii 0 -Iv 28 -P aodv -Pt 0x2 -Ph 3 -Pb 1 -Pd 9 -Pds 0 -Ps 5 -Pss 4 -Pc REQUEST 
r -t 1.008193817 -Hs 6 -Hd -2 -Ni 6 -Nx 436.00 -Ny 252.00 -Nz 0.00 -Ne 49.394660 -Nl MAC -Nw --- -Ma 0 -Md ffffffff -Ms 7 -Mt 800 -Is 7.255 -Id -1.255 -It AODV -Il 48 -If 0 -Ii 0 -Iv 28 -P aodv -Pt 0x2 -Ph 3 -Pb 1 -Pd 9 -Pds 0 -Ps 5 -Pss 4 -Pc REQUEST 
r -t 1.008193976 -Hs 4 -Hd -2 -Ni 4 -Nx 313.00 -Ny 285.00 -Nz 0.00 -Ne 49.394660 -Nl MAC -Nw --- -Ma 0 -Md ffffffff -Ms 7 -Mt 800 -Is 7.255 -Id -1.255 -It AODV -Il 48 -If 0 -Ii 0 -Iv 28 -P aodv -Pt 0x2 -Ph 3 -Pb 1 -Pd 9 -Pds 0 -Ps 5 -Pss 4 -Pc REQUEST 
r -t 1.008193980 -Hs 11 -Hd -2 -Ni 11 -Nx 558.00 -Ny 210.00 -Nz 0.00 -Ne 49.394660 -Nl MAC -Nw --- -Ma 0 -Md ffffffff -Ms 7 -Mt 800 -Is 7.255 -Id -1.255 -It AODV -Il 48 -If 0 -Ii 0 -Iv 28 -P aodv -Pt 0x2 -Ph 3 -Pb 1 -Pd 9 -Pds 0 -Ps 5 -Pss 4 -Pc REQUEST 
r -t 1.008194032 -Hs 2 -Hd -2 -Ni 2 -Nx 259.00 -Ny 380.00 -Nz 0.00 -Ne 49.394490 -Nl MAC -Nw --- -Ma 0 -Md ffffffff -Ms 7 -Mt 800 -Is 7.255 -Id -1.255 -It AODV -Il 48 -If 0 -Ii 0 -Iv 28 -P aodv -Pt 0x2 -Ph 3 -Pb 1 -Pd 9 -Pds 0 -Ps 5 -Pss 4 -Pc REQUEST 
r -t 1.008218583 -Hs 8 -Hd -2 -Ni 8 -Nx 534.00 -Ny 481.00 -Nz 0.00 -Ne 49.394660 -Nl RTR -Nw --- -Ma 0 -Md ffffffff -Ms 7 -Mt 800 -Is 7.255 -Id -1.255 -It AODV -Il 48 -If 0 -Ii 0 -Iv 28 -P aodv -Pt 0x2 -Ph 3 -Pb 1 -Pd 9 -Pds 0 -Ps 5 -Pss 4 -Pc REQUEST 
r -t 1.008218590 -Hs 9 -Hd -2 -Ni 9 -Nx 575.00 -Ny 394.00 -Nz 0.00 -Ne 49.394660 -Nl RTR -Nw --- -Ma 0 -Md ffffffff -Ms 7 -Mt 800 -Is 7.255 -Id -1.255 -It AODV -Il 48 -If 0 -Ii 0 -Iv 28 -P aodv -Pt 0x2 -Ph 3 -Pb 1 -Pd 9 -Pds 0 -Ps 5 -Pss 4 -Pc REQUEST 
r -t 1.008218625 -Hs 3 -Hd -2 -Ni 3 -Nx 388.36 -Ny 364.79 -Nz 0.00 -Ne 49.394490 -Nl RTR -Nw --- -Ma 0 -Md ffffffff -Ms 7 -Mt 800 -Is 7.255 -Id -1.255 -It AODV -Il 48 -If 0 -Ii 0 -Iv 28 -P aodv -Pt 0x2 -Ph 3 -Pb 1 -Pd 9 -Pds 0 -Ps 5 -Pss 4 -Pc REQUEST 
r -t 1.008218731 -Hs 1 -Hd -2 -Ni 1 -Nx 364.00 -Ny 470.00 -Nz 0.00 -Ne 49.394490 -Nl RTR -Nw --- -Ma 0 -Md ffffffff -Ms 7 -Mt 800 -Is 7.255 -Id -1.255 -It AODV -Il 48 -If 0 -Ii 0 -Iv 28 -P aodv -Pt 0x2 -Ph 3 -Pb 1 -Pd 9 -Pds 0 -Ps 5 -Pss 4 -Pc REQUEST 
r -t 1.008218811 -Hs 10 -Hd -2 -Ni 10 -Nx 597.00 -Ny 295.00 -Nz 0.00 -Ne 49.394660 -Nl RTR -Nw --- -Ma 0 -Md ffffffff -Ms 7 -Mt 800 -Is 7.255 -Id -1.255 -It AODV -Il 48 -If 0 -Ii 0 -Iv 28 -P aodv -Pt 0x2 -Ph 3 -Pb 1 -Pd 9 -Pds 0 -Ps 5 -Pss 4 -Pc REQUEST 
r -t 1.008218817 -Hs 6 -Hd -2 -Ni 6 -Nx 436.00 -Ny 252.00 -Nz 0.00 -Ne 49.394660 -Nl RTR -Nw --- -Ma 0 -Md ffffffff -Ms 7 -Mt 800 -Is 7.255 -Id -1.255 -It AODV -Il 48 -If 0 -Ii 0 -Iv 28 -P aodv -Pt 0x2 -Ph 3 -Pb 1 -Pd 9 -Pds 0 -Ps 5 -Pss 4 -Pc REQUEST 
r -t 1.008218976 -Hs 4 -Hd -2 -Ni 4 -Nx 313.00 -Ny 285.00 -Nz 0.00 -Ne 49.394660 -Nl RTR -Nw --- -Ma 0 -Md ffffffff -Ms 7 -Mt 800 -Is 7.255 -Id -1.255 -It AODV -Il 48 -If 0 -Ii 0 -Iv 28 -P aodv -Pt 0x2 -Ph 3 -Pb 1 -Pd 9 -Pds 0 -Ps 5 -Pss 4 -Pc REQUEST 
r -t 1.008218980 -Hs 11 -Hd -2 -Ni 11 -Nx 558.00 -Ny 210.00 -Nz 0.00 -Ne 49.394660 -Nl RTR -Nw --- -Ma 0 -Md ffffffff -Ms 7 -Mt 800 -Is 7.255 -Id -1.255 -It AODV -Il 48 -If 0 -Ii 0 -Iv 28 -P aodv -Pt 0x2 -Ph 3 -Pb 1 -Pd 9 -Pds 0 -Ps 5 -Pss 4 -Pc REQUEST 
r -t 1.008219032 -Hs 2 -Hd -2 -Ni 2 -Nx 259.00 -Ny 380.00 -Nz 0.00 -Ne 49.394490 -Nl RTR -Nw --- -Ma 0 -Md ffffffff -Ms 7 -Mt 800 -Is 7.255 -Id -1.255 -It AODV -Il 48 -If 0 -Ii 0 -Iv 28 -P aodv -Pt 0x2 -Ph 3 -Pb 1 -Pd 9 -Pds 0 -Ps 5 -Pss 4 -Pc REQUEST 