n -t * -s 0  -x 198 -y 470 -Z 0 -z 20  -v circle -c green
n -t * -s 1  -x 364 -y 470 -Z 0 -z 20  -v circle -c green
n -t * -s 2  -x 259 -y 380 -Z 0 -z 20  -v circle -c green
n -t * -s 3  -x 388 -y 365 -Z 0 -z 20  -v circle -c green
n -t * -s 4  -x 313 -y 285 -Z 0 -z 20  -v circle -c green
n -t * -s 5  -x 196 -y 287 -Z 0 -z 20  -v circle -c green
n -t * -s 6  -x 436 -y 252 -Z 0 -z 20  -v circle -c green
n -t * -s 7  -x 483 -y 406 -Z 0 -z 20  -v circle -c green
n -t * -s 8  -x 534 -y 481 -Z 0 -z 20  -v circle -c green
n -t * -s 9  -x 575 -y 394 -Z 0 -z 20  -v circle -c green
n -t * -s 10  -x 597 -y 295 -Z 0 -z 20  -v circle -c green
n -t * -s 11  -x 558 -y 210 -Z 0 -z 20  -v circle -c green
n -t * -s 12  -x 423 -y 134 -Z 0 -z 20  -v circle -c green
n -t * -s 13  -x 277 -y 154 -Z 0 -z 20  -v circle -c green
n -t * -s 14  -x 545 -y 104 -Z 0 -z 20  -v circle -c green
n -t * -s 15  -x 341 -y 72 -Z 0 -z 20  -v circle -c green
V -t * -v 1.0a5 -a 0
W -t * -x 800 -y 700
A -t * -n 1 -p 0 -o 0x7fffffff -c 30 -a 1
A -t * -h 1 -m 1073741823 -s 0
n -t 1.000000 -s 3 -x 388.000000 -y 365.000000 -U 43.244855 -V -25.097460 -T 2.589903
+ -t 1.000000000 -s 5 -d -1 -p tcp -e 40 -c 2 -a 0 -i 0 -k AGT 
- -t 1.000000000 -s 5 -d -1 -p tcp -e 40 -c 2 -a 0 -i 0 -k AGT
h -t 1.000000000 -s 5 -d -1 -p tcp -e 40 -c 2 -a 0 -i 0 -k AGT
+ -t 1.000000000 -s 5 -d -1 -p AODV -e 48 -c 2 -a 0 -i 0 -k RTR 
- -t 1.000000000 -s 5 -d -1 -p AODV -e 48 -c 2 -a 0 -i 0 -k RTR
h -t 1.000000000 -s 5 -d -1 -p AODV -e 48 -c 2 -a 0 -i 0 -k RTR
+ -t 1.000635000 -s 5 -d -1 -p AODV -e 106 -c 2 -a 0 -i 0 -k MAC 
- -t 1.000635000 -s 5 -d -1 -p AODV -e 106 -c 2 -a 0 -i 0 -k MAC
h -t 1.000635000 -s 5 -d -1 -p AODV -e 106 -c 2 -a 0 -i 0 -k MAC
r -t 1.001483374 -s 2 -d -1 -p AODV -e 48 -c 2 -a 0 -i 0 -k MAC
r -t 1.001483390 -s 4 -d -1 -p AODV -e 48 -c 2 -a 0 -i 0 -k MAC
r -t 1.001483519 -s 13 -d -1 -p AODV -e 48 -c 2 -a 0 -i 0 -k MAC
r -t 1.001483610 -s 0 -d -1 -p AODV -e 48 -c 2 -a 0 -i 0 -k MAC
r -t 1.001483691 -s 3 -d -1 -p AODV -e 48 -c 2 -a 0 -i 0 -k MAC
r -t 1.001483808 -s 6 -d -1 -p AODV -e 48 -c 2 -a 0 -i 0 -k MAC
r -t 1.001483828 -s 1 -d -1 -p AODV -e 48 -c 2 -a 0 -i 0 -k MAC
r -t 1.001508374 -s 2 -d -1 -p AODV -e 48 -c 2 -a 0 -i 0 -k RTR
r -t 1.001508390 -s 4 -d -1 -p AODV -e 48 -c 2 -a 0 -i 0 -k RTR
r -t 1.001508519 -s 13 -d -1 -p AODV -e 48 -c 2 -a 0 -i 0 -k RTR
r -t 1.001508610 -s 0 -d -1 -p AODV -e 48 -c 2 -a 0 -i 0 -k RTR
r -t 1.001508691 -s 3 -d -1 -p AODV -e 48 -c 2 -a 0 -i 0 -k RTR
r -t 1.001508808 -s 6 -d -1 -p AODV -e 48 -c 2 -a 0 -i 0 -k RTR
r -t 1.001508828 -s 1 -d -1 -p AODV -e 48 -c 2 -a 0 -i 0 -k RTR
+ -t 1.003854708 -s 3 -d -1 -p AODV -e 48 -c 2 -a 0 -i 0 -k RTR 
- -t 1.003854708 -s 3 -d -1 -p AODV -e 48 -c 2 -a 0 -i 0 -k RTR
h -t 1.003854708 -s 3 -d -1 -p AODV -e 48 -c 2 -a 0 -i 0 -k RTR
+ -t 1.004169708 -s 3 -d -1 -p AODV -e 106 -c 2 -a 0 -i 0 -k MAC 
- -t 1.004169708 -s 3 -d -1 -p AODV -e 106 -c 2 -a 0 -i 0 -k MAC
h -t 1.004169708 -s 3 -d -1 -p AODV -e 106 -c 2 -a 0 -i 0 -k MAC
+ -t 1.004599619 -s 1 -d -1 -p AODV -e 48 -c 2 -a 0 -i 0 -k RTR 
- -t 1.004599619 -s 1 -d -1 -p AODV -e 48 -c 2 -a 0 -i 0 -k RTR
h -t 1.004599619 -s 1 -d -1 -p AODV -e 48 -c 2 -a 0 -i 0 -k RTR
+ -t 1.004638137 -s 13 -d -1 -p AODV -e 48 -c 2 -a 0 -i 0 -k RTR 
- -t 1.004638137 -s 13 -d -1 -p AODV -e 48 -c 2 -a 0 -i 0 -k RTR
h -t 1.004638137 -s 13 -d -1 -p AODV -e 48 -c 2 -a 0 -i 0 -k RTR
r -t 1.005018053 -s 7 -d -1 -p AODV -e 48 -c 2 -a 0 -i 0 -k MAC
r -t 1.005018068 -s 1 -d -1 -p AODV -e 48 -c 2 -a 0 -i 0 -k MAC
r -t 1.005018074 -s 4 -d -1 -p AODV -e 48 -c 2 -a 0 -i 0 -k MAC
r -t 1.005018117 -s 6 -d -1 -p AODV -e 48 -c 2 -a 0 -i 0 -k MAC
r -t 1.005018142 -s 2 -d -1 -p AODV -e 48 -c 2 -a 0 -i 0 -k MAC
r -t 1.005018330 -s 8 -d -1 -p AODV -e 48 -c 2 -a 0 -i 0 -k MAC
r -t 1.005018339 -s 9 -d -1 -p AODV -e 48 -c 2 -a 0 -i 0 -k MAC
r -t 1.005018400 -s 5 -d -1 -p AODV -e 48 -c 2 -a 0 -i 0 -k MAC
r -t 1.005018433 -s 0 -d -1 -p AODV -e 48 -c 2 -a 0 -i 0 -k MAC
r -t 1.005018442 -s 10 -d -1 -p AODV -e 48 -c 2 -a 0 -i 0 -k MAC
r -t 1.005018475 -s 11 -d -1 -p AODV -e 48 -c 2 -a 0 -i 0 -k MAC
r -t 1.005018487 -s 12 -d -1 -p AODV -e 48 -c 2 -a 0 -i 0 -k MAC
r -t 1.005018503 -s 13 -d -1 -p AODV -e 48 -c 2 -a 0 -i 0 -k MAC
r -t 1.005043053 -s 7 -d -1 -p AODV -e 48 -c 2 -a 0 -i 0 -k RTR
r -t 1.005043068 -s 1 -d -1 -p AODV -e 48 -c 2 -a 0 -i 0 -k RTR
r -t 1.005043074 -s 4 -d -1 -p AODV -e 48 -c 2 -a 0 -i 0 -k RTR
r -t 1.005043117 -s 6 -d -1 -p AODV -e 48 -c 2 -a 0 -i 0 -k RTR
r -t 1.005043142 -s 2 -d -1 -p AODV -e 48 -c 2 -a 0 -i 0 -k RTR
r -t 1.005043330 -s 8 -d -1 -p AODV -e 48 -c 2 -a 0 -i 0 -k RTR
r -t 1.005043339 -s 9 -d -1 -p AODV -e 48 -c 2 -a 0 -i 0 -k RTR
+ -t 1.005043339 -s 9 -d 3 -p AODV -e 44 -c 2 -a 0 -i 0 -k RTR 
- -t 1.005043339 -s 9 -d 3 -p AODV -e 44 -c 2 -a 0 -i 0 -k RTR
h -t 1.005043339 -s 9 -d 3 -p AODV -e 44 -c 2 -a 0 -i 0 -k RTR
r -t 1.005043400 -s 5 -d -1 -p AODV -e 48 -c 2 -a 0 -i 0 -k RTR
r -t 1.005043433 -s 0 -d -1 -p AODV -e 48 -c 2 -a 0 -i 0 -k RTR
r -t 1.005043442 -s 10 -d -1 -p AODV -e 48 -c 2 -a 0 -i 0 -k RTR
r -t 1.005043475 -s 11 -d -1 -p AODV -e 48 -c 2 -a 0 -i 0 -k RTR
r -t 1.005043487 -s 12 -d -1 -p AODV -e 48 -c 2 -a 0 -i 0 -k RTR
r -t 1.005043503 -s 13 -d -1 -p AODV -e 48 -c 2 -a 0 -i 0 -k RTR
+ -t 1.005108068 -s 1 -d -1 -p AODV -e 106 -c 2 -a 0 -i 0 -k MAC 
- -t 1.005108068 -s 1 -d -1 -p AODV -e 106 -c 2 -a 0 -i 0 -k MAC
h -t 1.005108068 -s 1 -d -1 -p AODV -e 106 -c 2 -a 0 -i 0 -k MAC
+ -t 1.005920108 -s 2 -d -1 -p AODV -e 48 -c 2 -a 0 -i 0 -k RTR 
- -t 1.005920108 -s 2 -d -1 -p AODV -e 48 -c 2 -a 0 -i 0 -k RTR
h -t 1.005920108 -s 2 -d -1 -p AODV -e 48 -c 2 -a 0 -i 0 -k RTR
r -t 1.005956427 -s 3 -d -1 -p AODV -e 48 -c 2 -a 0 -i 0 -k MAC
r -t 1.005956518 -s 7 -d -1 -p AODV -e 48 -c 2 -a 0 -i 0 -k MAC
r -t 1.005956529 -s 2 -d -1 -p AODV -e 48 -c 2 -a 0 -i 0 -k MAC
r -t 1.005956621 -s 0 -d -1 -p AODV -e 48 -c 2 -a 0 -i 0 -k MAC
r -t 1.005956636 -s 8 -d -1 -p AODV -e 48 -c 2 -a 0 -i 0 -k MAC
r -t 1.005956708 -s 4 -d -1 -p AODV -e 48 -c 2 -a 0 -i 0 -k MAC
r -t 1.005956815 -s 9 -d -1 -p AODV -e 48 -c 2 -a 0 -i 0 -k MAC
r -t 1.005956833 -s 6 -d -1 -p AODV -e 48 -c 2 -a 0 -i 0 -k MAC
r -t 1.005956896 -s 5 -d -1 -p AODV -e 48 -c 2 -a 0 -i 0 -k MAC
r -t 1.005981427 -s 3 -d -1 -p AODV -e 48 -c 2 -a 0 -i 0 -k RTR
r -t 1.005981518 -s 7 -d -1 -p AODV -e 48 -c 2 -a 0 -i 0 -k RTR
r -t 1.005981529 -s 2 -d -1 -p AODV -e 48 -c 2 -a 0 -i 0 -k RTR
r -t 1.005981621 -s 0 -d -1 -p AODV -e 48 -c 2 -a 0 -i 0 -k RTR
r -t 1.005981636 -s 8 -d -1 -p AODV -e 48 -c 2 -a 0 -i 0 -k RTR
r -t 1.005981708 -s 4 -d -1 -p AODV -e 48 -c 2 -a 0 -i 0 -k RTR
r -t 1.005981815 -s 9 -d -1 -p AODV -e 48 -c 2 -a 0 -i 0 -k RTR
r -t 1.005981833 -s 6 -d -1 -p AODV -e 48 -c 2 -a 0 -i 0 -k RTR
r -t 1.005981896 -s 5 -d -1 -p AODV -e 48 -c 2 -a 0 -i 0 -k RTR
+ -t 1.005984875 -s 12 -d -1 -p AODV -e 48 -c 2 -a 0 -i 0 -k RTR 
- -t 1.005984875 -s 12 -d -1 -p AODV -e 48 -c 2 -a 0 -i 0 -k RTR
h -t 1.005984875 -s 12 -d -1 -p AODV -e 48 -c 2 -a 0 -i 0 -k RTR
+ -t 1.006181135 -s 7 -d -1 -p AODV -e 48 -c 2 -a 0 -i 0 -k RTR 
- -t 1.006181135 -s 7 -d -1 -p AODV -e 48 -c 2 -a 0 -i 0 -k RTR
h -t 1.006181135 -s 7 -d -1 -p AODV -e 48 -c 2 -a 0 -i 0 -k RTR
+ -t 1.006206529 -s 2 -d -1 -p AODV -e 106 -c 2 -a 0 -i 0 -k MAC 
- -t 1.006206529 -s 2 -d -1 -p AODV -e 106 -c 2 -a 0 -i 0 -k MAC
h -t 1.006206529 -s 2 -d -1 -p AODV -e 106 -c 2 -a 0 -i 0 -k MAC
+ -t 1.006791527 -s 11 -d -1 -p AODV -e 48 -c 2 -a 0 -i 0 -k RTR 
- -t 1.006791527 -s 11 -d -1 -p AODV -e 48 -c 2 -a 0 -i 0 -k RTR
h -t 1.006791527 -s 11 -d -1 -p AODV -e 48 -c 2 -a 0 -i 0 -k RTR
r -t 1.007054891 -s 0 -d -1 -p AODV -e 48 -c 2 -a 0 -i 0 -k MAC
r -t 1.007054893 -s 4 -d -1 -p AODV -e 48 -c 2 -a 0 -i 0 -k MAC
r -t 1.007054903 -s 5 -d -1 -p AODV -e 48 -c 2 -a 0 -i 0 -k MAC
r -t 1.007054963 -s 3 -d -1 -p AODV -e 48 -c 2 -a 0 -i 0 -k MAC
r -t 1.007054990 -s 1 -d -1 -p AODV -e 48 -c 2 -a 0 -i 0 -k MAC
r -t 1.007055257 -s 6 -d -1 -p AODV -e 48 -c 2 -a 0 -i 0 -k MAC
r -t 1.007055281 -s 7 -d -1 -p AODV -e 48 -c 2 -a 0 -i 0 -k MAC
r -t 1.007055285 -s 13 -d -1 -p AODV -e 48 -c 2 -a 0 -i 0 -k MAC
r -t 1.007079891 -s 0 -d -1 -p AODV -e 48 -c 2 -a 0 -i 0 -k RTR
r -t 1.007079893 -s 4 -d -1 -p AODV -e 48 -c 2 -a 0 -i 0 -k RTR
r -t 1.007079903 -s 5 -d -1 -p AODV -e 48 -c 2 -a 0 -i 0 -k RTR
r -t 1.007079963 -s 3 -d -1 -p AODV -e 48 -c 2 -a 0 -i 0 -k RTR
r -t 1.007079990 -s 1 -d -1 -p AODV -e 48 -c 2 -a 0 -i 0 -k RTR
r -t 1.007080257 -s 6 -d -1 -p AODV -e 48 -c 2 -a 0 -i 0 -k RTR
r -t 1.007080281 -s 7 -d -1 -p AODV -e 48 -c 2 -a 0 -i 0 -k RTR
r -t 1.007080285 -s 13 -d -1 -p AODV -e 48 -c 2 -a 0 -i 0 -k RTR
+ -t 1.007345281 -s 7 -d -1 -p AODV -e 106 -c 2 -a 0 -i 0 -k MAC 
- -t 1.007345281 -s 7 -d -1 -p AODV -e 106 -c 2 -a 0 -i 0 -k MAC
h -t 1.007345281 -s 7 -d -1 -p AODV -e 106 -c 2 -a 0 -i 0 -k MAC
+ -t 1.007897460 -s 6 -d -1 -p AODV -e 48 -c 2 -a 0 -i 0 -k RTR 
- -t 1.007897460 -s 6 -d -1 -p AODV -e 48 -c 2 -a 0 -i 0 -k RTR
h -t 1.007897460 -s 6 -d -1 -p AODV -e 48 -c 2 -a 0 -i 0 -k RTR
r -t 1.008193583 -s 8 -d -1 -p AODV -e 48 -c 2 -a 0 -i 0 -k MAC
r -t 1.008193590 -s 9 -d -1 -p AODV -e 48 -c 2 -a 0 -i 0 -k MAC
r -t 1.008193625 -s 3 -d -1 -p AODV -e 48 -c 2 -a 0 -i 0 -k MAC
r -t 1.008193731 -s 1 -d -1 -p AODV -e 48 -c 2 -a 0 -i 0 -k MAC
r -t 1.008193811 -s 10 -d -1 -p AODV -e 48 -c 2 -a 0 -i 0 -k MAC
r -t 1.008193817 -s 6 -d -1 -p AODV -e 48 -c 2 -a 0 -i 0 -k MAC
r -t 1.008193976 -s 4 -d -1 -p AODV -e 48 -c 2 -a 0 -i 0 -k MAC
r -t 1.008193980 -s 11 -d -1 -p AODV -e 48 -c 2 -a 0 -i 0 -k MAC
r -t 1.008194032 -s 2 -d -1 -p AODV -e 48 -c 2 -a 0 -i 0 -k MAC
r -t 1.008218583 -s 8 -d -1 -p AODV -e 48 -c 2 -a 0 -i 0 -k RTR
r -t 1.008218590 -s 9 -d -1 -p AODV -e 48 -c 2 -a 0 -i 0 -k RTR
r -t 1.008218625 -s 3 -d -1 -p AODV -e 48 -c 2 -a 0 -i 0 -k RTR
r -t 1.008218731 -s 1 -d -1 -p AODV -e 48 -c 2 -a 0 -i 0 -k RTR
r -t 1.008218811 -s 10 -d -1 -p AODV -e 48 -c 2 -a 0 -i 0 -k RTR
r -t 1.008218817 -s 6 -d -1 -p AODV -e 48 -c 2 -a 0 -i 0 -k RTR
r -t 1.008218976 -s 4 -d -1 -p AODV -e 48 -c 2 -a 0 -i 0 -k RTR
r -t 1.008218980 -s 11 -d -1 -p AODV -e 48 -c 2 -a 0 -i 0 -k RTR
r -t 1.008219032 -s 2 -d -1 -p AODV -e 48 -c 2 -a 0 -i 0 -k RTR
+ -t 1.008363590 -s 9 -d -1 -p ARP -e 86 -c 2 -a 0 -i 0 -k MAC 
- -t 1.008363590 -s 9 -d -1 -p ARP -e 86 -c 2 -a 0 -i 0 -k MAC
h -t 1.008363590 -s 9 -d -1 -p ARP -e 86 -c 2 -a 0 -i 0 -k MAC
r -t 1.009051899 -s 7 -d -1 -p ARP -e 28 -c 2 -a 0 -i 0 -k MAC
r -t 1.009051910 -s 8 -d -1 -p ARP -e 28 -c 2 -a 0 -i 0 -k MAC
r -t 1.009051928 -s 10 -d -1 -p ARP -e 28 -c 2 -a 0 -i 0 -k MAC
r -t 1.009052206 -s 11 -d -1 -p ARP -e 28 -c 2 -a 0 -i 0 -k MAC
r -t 1.009052220 -s 3 -d -1 -p ARP -e 28 -c 2 -a 0 -i 0 -k MAC
r -t 1.009052252 -s 6 -d -1 -p ARP -e 28 -c 2 -a 0 -i 0 -k MAC
r -t 1.009052337 -s 1 -d -1 -p ARP -e 28 -c 2 -a 0 -i 0 -k MAC
+ -t 1.009280010 -s 10 -d -1 -p AODV -e 48 -c 2 -a 0 -i 0 -k RTR 
- -t 1.009280010 -s 10 -d -1 -p AODV -e 48 -c 2 -a 0 -i 0 -k RTR
h -t 1.009280010 -s 10 -d -1 -p AODV -e 48 -c 2 -a 0 -i 0 -k RTR
+ -t 1.009395010 -s 10 -d -1 -p AODV -e 106 -c 2 -a 0 -i 0 -k MAC 
- -t 1.009395010 -s 10 -d -1 -p AODV -e 106 -c 2 -a 0 -i 0 -k MAC
h -t 1.009395010 -s 10 -d -1 -p AODV -e 106 -c 2 -a 0 -i 0 -k MAC
+ -t 1.009499945 -s 4 -d -1 -p AODV -e 48 -c 2 -a 0 -i 0 -k RTR 
- -t 1.009499945 -s 4 -d -1 -p AODV -e 48 -c 2 -a 0 -i 0 -k RTR
h -t 1.009499945 -s 4 -d -1 -p AODV -e 48 -c 2 -a 0 -i 0 -k RTR
+ -t 1.009673371 -s 0 -d -1 -p AODV -e 48 -c 2 -a 0 -i 0 -k RTR 
- -t 1.009673371 -s 0 -d -1 -p AODV -e 48 -c 2 -a 0 -i 0 -k RTR
h -t 1.009673371 -s 0 -d -1 -p AODV -e 48 -c 2 -a 0 -i 0 -k RTR
r -t 1.010243321 -s 11 -d -1 -p AODV -e 48 -c 2 -a 0 -i 0 -k MAC
r -t 1.010243348 -s 9 -d -1 -p AODV -e 48 -c 2 -a 0 -i 0 -k MAC
r -t 1.010243540 -s 7 -d -1 -p AODV -e 48 -c 2 -a 0 -i 0 -k MAC
r -t 1.010243565 -s 6 -d -1 -p AODV -e 48 -c 2 -a 0 -i 0 -k MAC
r -t 1.010243664 -s 8 -d -1 -p AODV -e 48 -c 2 -a 0 -i 0 -k MAC
r -t 1.010243670 -s 14 -d -1 -p AODV -e 48 -c 2 -a 0 -i 0 -k MAC
r -t 1.010243743 -s 3 -d -1 -p AODV -e 48 -c 2 -a 0 -i 0 -k MAC
r -t 1.010243800 -s 12 -d -1 -p AODV -e 48 -c 2 -a 0 -i 0 -k MAC
r -t 1.010268321 -s 11 -d -1 -p AODV -e 48 -c 2 -a 0 -i 0 -k RTR
r -t 1.010268348 -s 9 -d -1 -p AODV -e 48 -c 2 -a 0 -i 0 -k RTR
r -t 1.010268540 -s 7 -d -1 -p AODV -e 48 -c 2 -a 0 -i 0 -k RTR
r -t 1.010268565 -s 6 -d -1 -p AODV -e 48 -c 2 -a 0 -i 0 -k RTR
r -t 1.010268664 -s 8 -d -1 -p AODV -e 48 -c 2 -a 0 -i 0 -k RTR
r -t 1.010268670 -s 14 -d -1 -p AODV -e 48 -c 2 -a 0 -i 0 -k RTR
r -t 1.010268743 -s 3 -d -1 -p AODV -e 48 -c 2 -a 0 -i 0 -k RTR
r -t 1.010268800 -s 12 -d -1 -p AODV -e 48 -c 2 -a 0 -i 0 -k RTR
+ -t 1.010313800 -s 12 -d -1 -p AODV -e 106 -c 2 -a 0 -i 0 -k MAC 
- -t 1.010313800 -s 12 -d -1 -p AODV -e 106 -c 2 -a 0 -i 0 -k MAC
h -t 1.010313800 -s 12 -d -1 -p AODV -e 106 -c 2 -a 0 -i 0 -k MAC
r -t 1.011162143 -s 15 -d -1 -p AODV -e 48 -c 2 -a 0 -i 0 -k MAC
r -t 1.011162196 -s 6 -d -1 -p AODV -e 48 -c 2 -a 0 -i 0 -k MAC
r -t 1.011162219 -s 14 -d -1 -p AODV -e 48 -c 2 -a 0 -i 0 -k MAC
r -t 1.011162291 -s 13 -d -1 -p AODV -e 48 -c 2 -a 0 -i 0 -k MAC
r -t 1.011162316 -s 11 -d -1 -p AODV -e 48 -c 2 -a 0 -i 0 -k MAC
r -t 1.011162423 -s 4 -d -1 -p AODV -e 48 -c 2 -a 0 -i 0 -k MAC
r -t 1.011162578 -s 3 -d -1 -p AODV -e 48 -c 2 -a 0 -i 0 -k MAC
r -t 1.011162590 -s 10 -d -1 -p AODV -e 48 -c 2 -a 0 -i 0 -k MAC
r -t 1.011187143 -s 15 -d -1 -p AODV -e 48 -c 2 -a 0 -i 0 -k RTR
r -t 1.011187196 -s 6 -d -1 -p AODV -e 48 -c 2 -a 0 -i 0 -k RTR
r -t 1.011187219 -s 14 -d -1 -p AODV -e 48 -c 2 -a 0 -i 0 -k RTR
r -t 1.011187291 -s 13 -d -1 -p AODV -e 48 -c 2 -a 0 -i 0 -k RTR
r -t 1.011187316 -s 11 -d -1 -p AODV -e 48 -c 2 -a 0 -i 0 -k RTR
r -t 1.011187423 -s 4 -d -1 -p AODV -e 48 -c 2 -a 0 -i 0 -k RTR
r -t 1.011187578 -s 3 -d -1 -p AODV -e 48 -c 2 -a 0 -i 0 -k RTR
r -t 1.011187590 -s 10 -d -1 -p AODV -e 48 -c 2 -a 0 -i 0 -k RTR
+ -t 1.011232316 -s 11 -d -1 -p AODV -e 106 -c 2 -a 0 -i 0 -k MAC 
- -t 1.011232316 -s 11 -d -1 -p AODV -e 106 -c 2 -a 0 -i 0 -k MAC
h -t 1.011232316 -s 11 -d -1 -p AODV -e 106 -c 2 -a 0 -i 0 -k MAC
r -t 1.012080628 -s 10 -d -1 -p AODV -e 48 -c 2 -a 0 -i 0 -k MAC
r -t 1.012080672 -s 14 -d -1 -p AODV -e 48 -c 2 -a 0 -i 0 -k MAC
r -t 1.012080746 -s 6 -d -1 -p AODV -e 48 -c 2 -a 0 -i 0 -k MAC
r -t 1.012080833 -s 12 -d -1 -p AODV -e 48 -c 2 -a 0 -i 0 -k MAC
r -t 1.012080932 -s 9 -d -1 -p AODV -e 48 -c 2 -a 0 -i 0 -k MAC
r -t 1.012081016 -s 7 -d -1 -p AODV -e 48 -c 2 -a 0 -i 0 -k MAC
r -t 1.012081081 -s 3 -d -1 -p AODV -e 48 -c 2 -a 0 -i 0 -k MAC
r -t 1.012105628 -s 10 -d -1 -p AODV -e 48 -c 2 -a 0 -i 0 -k RTR
r -t 1.012105672 -s 14 -d -1 -p AODV -e 48 -c 2 -a 0 -i 0 -k RTR
r -t 1.012105746 -s 6 -d -1 -p AODV -e 48 -c 2 -a 0 -i 0 -k RTR
r -t 1.012105833 -s 12 -d -1 -p AODV -e 48 -c 2 -a 0 -i 0 -k RTR
r -t 1.012105932 -s 9 -d -1 -p AODV -e 48 -c 2 -a 0 -i 0 -k RTR
r -t 1.012106016 -s 7 -d -1 -p AODV -e 48 -c 2 -a 0 -i 0 -k RTR
r -t 1.012106081 -s 3 -d -1 -p AODV -e 48 -c 2 -a 0 -i 0 -k RTR
+ -t 1.012171081 -s 3 -d -1 -p RTS -e 44 -c 2 -a 0 -i 0 -k MAC 
- -t 1.012171081 -s 3 -d -1 -p RTS -e 44 -c 2 -a 0 -i 0 -k MAC
h -t 1.012171081 -s 3 -d -1 -p RTS -e 44 -c 2 -a 0 -i 0 -k MAC
r -t 1.012523711 -s 9 -d -1 -p RTS -e 44 -c 2 -a 0 -i 0 -k MAC
+ -t 1.012533711 -s 9 -d -1 -p CTS -e 38 -c 2 -a 0 -i 0 -k MAC 
- -t 1.012533711 -s 9 -d -1 -p CTS -e 38 -c 2 -a 0 -i 0 -k MAC
h -t 1.012533711 -s 9 -d -1 -p CTS -e 38 -c 2 -a 0 -i 0 -k MAC
r -t 1.012838340 -s 3 -d -1 -p CTS -e 38 -c 2 -a 0 -i 0 -k MAC
+ -t 1.012848340 -s 3 -d -1 -p ARP -e 86 -c 2 -a 0 -i 0 -k MAC 
- -t 1.012848340 -s 3 -d -1 -p ARP -e 86 -c 2 -a 0 -i 0 -k MAC
h -t 1.012848340 -s 3 -d -1 -p ARP -e 86 -c 2 -a 0 -i 0 -k MAC
r -t 1.013536969 -s 9 -d -1 -p ARP -e 28 -c 2 -a 0 -i 0 -k MAC
+ -t 1.013546969 -s 9 -d -1 -p ACK -e 38 -c 2 -a 0 -i 0 -k MAC 
- -t 1.013546969 -s 9 -d -1 -p ACK -e 38 -c 2 -a 0 -i 0 -k MAC
h -t 1.013546969 -s 9 -d -1 -p ACK -e 38 -c 2 -a 0 -i 0 -k MAC
+ -t 1.013640607 -s 8 -d -1 -p AODV -e 48 -c 2 -a 0 -i 0 -k RTR 
- -t 1.013640607 -s 8 -d -1 -p AODV -e 48 -c 2 -a 0 -i 0 -k RTR
h -t 1.013640607 -s 8 -d -1 -p AODV -e 48 -c 2 -a 0 -i 0 -k RTR
r -t 1.013851598 -s 3 -d -1 -p ACK -e 38 -c 2 -a 0 -i 0 -k MAC
+ -t 1.014001631 -s 6 -d -1 -p AODV -e 106 -c 2 -a 0 -i 0 -k MAC 
- -t 1.014001631 -s 6 -d -1 -p AODV -e 106 -c 2 -a 0 -i 0 -k MAC
h -t 1.014001631 -s 6 -d -1 -p AODV -e 106 -c 2 -a 0 -i 0 -k MAC
+ -t 1.014323860 -s 14 -d -1 -p AODV -e 48 -c 2 -a 0 -i 0 -k RTR 
- -t 1.014323860 -s 14 -d -1 -p AODV -e 48 -c 2 -a 0 -i 0 -k RTR
h -t 1.014323860 -s 14 -d -1 -p AODV -e 48 -c 2 -a 0 -i 0 -k RTR
r -t 1.014850027 -s 12 -d -1 -p AODV -e 48 -c 2 -a 0 -i 0 -k MAC
r -t 1.014850039 -s 3 -d -1 -p AODV -e 48 -c 2 -a 0 -i 0 -k MAC
r -t 1.014850056 -s 4 -d -1 -p AODV -e 48 -c 2 -a 0 -i 0 -k MAC
r -t 1.014850061 -s 11 -d -1 -p AODV -e 48 -c 2 -a 0 -i 0 -k MAC
r -t 1.014850168 -s 7 -d -1 -p AODV -e 48 -c 2 -a 0 -i 0 -k MAC
r -t 1.014850187 -s 10 -d -1 -p AODV -e 48 -c 2 -a 0 -i 0 -k MAC
r -t 1.014850244 -s 14 -d -1 -p AODV -e 48 -c 2 -a 0 -i 0 -k MAC
r -t 1.014850254 -s 13 -d -1 -p AODV -e 48 -c 2 -a 0 -i 0 -k MAC
r -t 1.014850294 -s 9 -d -1 -p AODV -e 48 -c 2 -a 0 -i 0 -k MAC
r -t 1.014850310 -s 15 -d -1 -p AODV -e 48 -c 2 -a 0 -i 0 -k MAC
r -t 1.014850359 -s 2 -d -1 -p AODV -e 48 -c 2 -a 0 -i 0 -k MAC
r -t 1.014850397 -s 1 -d -1 -p AODV -e 48 -c 2 -a 0 -i 0 -k MAC
r -t 1.014850440 -s 5 -d -1 -p AODV -e 48 -c 2 -a 0 -i 0 -k MAC
r -t 1.014850462 -s 8 -d -1 -p AODV -e 48 -c 2 -a 0 -i 0 -k MAC
r -t 1.014875027 -s 12 -d -1 -p AODV -e 48 -c 2 -a 0 -i 0 -k RTR
r -t 1.014875039 -s 3 -d -1 -p AODV -e 48 -c 2 -a 0 -i 0 -k RTR
r -t 1.014875056 -s 4 -d -1 -p AODV -e 48 -c 2 -a 0 -i 0 -k RTR
r -t 1.014875061 -s 11 -d -1 -p AODV -e 48 -c 2 -a 0 -i 0 -k RTR
r -t 1.014875168 -s 7 -d -1 -p AODV -e 48 -c 2 -a 0 -i 0 -k RTR
r -t 1.014875187 -s 10 -d -1 -p AODV -e 48 -c 2 -a 0 -i 0 -k RTR
r -t 1.014875244 -s 14 -d -1 -p AODV -e 48 -c 2 -a 0 -i 0 -k RTR
r -t 1.014875254 -s 13 -d -1 -p AODV -e 48 -c 2 -a 0 -i 0 -k RTR
r -t 1.014875294 -s 9 -d -1 -p AODV -e 48 -c 2 -a 0 -i 0 -k RTR
r -t 1.014875310 -s 15 -d -1 -p AODV -e 48 -c 2 -a 0 -i 0 -k RTR
r -t 1.014875359 -s 2 -d -1 -p AODV -e 48 -c 2 -a 0 -i 0 -k RTR
r -t 1.014875397 -s 1 -d -1 -p AODV -e 48 -c 2 -a 0 -i 0 -k RTR
r -t 1.014875440 -s 5 -d -1 -p AODV -e 48 -c 2 -a 0 -i 0 -k RTR
r -t 1.014875462 -s 8 -d -1 -p AODV -e 48 -c 2 -a 0 -i 0 -k RTR
+ -t 1.015000294 -s 9 -d -1 -p RTS -e 44 -c 2 -a 0 -i 0 -k MAC 
- -t 1.015000294 -s 9 -d -1 -p RTS -e 44 -c 2 -a 0 -i 0 -k MAC
h -t 1.015000294 -s 9 -d -1 -p RTS -e 44 -c 2 -a 0 -i 0 -k MAC
+ -t 1.015229218 -s 15 -d -1 -p AODV -e 48 -c 2 -a 0 -i 0 -k RTR 
- -t 1.015229218 -s 15 -d -1 -p AODV -e 48 -c 2 -a 0 -i 0 -k RTR
h -t 1.015229218 -s 15 -d -1 -p AODV -e 48 -c 2 -a 0 -i 0 -k RTR
r -t 1.015352922 -s 3 -d -1 -p RTS -e 44 -c 2 -a 0 -i 0 -k MAC
+ -t 1.015362922 -s 3 -d -1 -p CTS -e 38 -c 2 -a 0 -i 0 -k MAC 
- -t 1.015362922 -s 3 -d -1 -p CTS -e 38 -c 2 -a 0 -i 0 -k MAC
h -t 1.015362922 -s 3 -d -1 -p CTS -e 38 -c 2 -a 0 -i 0 -k MAC
r -t 1.015667551 -s 9 -d -1 -p CTS -e 38 -c 2 -a 0 -i 0 -k MAC
+ -t 1.015677551 -s 9 -d 3 -p AODV -e 102 -c 2 -a 0 -i 0 -k MAC 
- -t 1.015677551 -s 9 -d 3 -p AODV -e 102 -c 2 -a 0 -i 0 -k MAC
h -t 1.015677551 -s 9 -d 3 -p AODV -e 102 -c 2 -a 0 -i 0 -k MAC
r -t 1.016494180 -s 3 -d 3 -p AODV -e 44 -c 2 -a 0 -i 0 -k MAC
+ -t 1.016504180 -s 3 -d -1 -p ACK -e 38 -c 2 -a 0 -i 0 -k MAC 
- -t 1.016504180 -s 3 -d -1 -p ACK -e 38 -c 2 -a 0 -i 0 -k MAC
h -t 1.016504180 -s 3 -d -1 -p ACK -e 38 -c 2 -a 0 -i 0 -k MAC
+ -t 1.016519180 -s 3 -d 5 -p AODV -e 44 -c 2 -a 0 -i 0 -k RTR 
- -t 1.016519180 -s 3 -d 5 -p AODV -e 44 -c 2 -a 0 -i 0 -k RTR
h -t 1.016519180 -s 3 -d 5 -p AODV -e 44 -c 2 -a 0 -i 0 -k RTR
r -t 1.016808809 -s 9 -d -1 -p ACK -e 38 -c 2 -a 0 -i 0 -k MAC
+ -t 1.016878180 -s 3 -d -1 -p ARP -e 86 -c 2 -a 0 -i 0 -k MAC 
- -t 1.016878180 -s 3 -d -1 -p ARP -e 86 -c 2 -a 0 -i 0 -k MAC
h -t 1.016878180 -s 3 -d -1 -p ARP -e 86 -c 2 -a 0 -i 0 -k MAC
r -t 1.017566523 -s 7 -d -1 -p ARP -e 28 -c 2 -a 0 -i 0 -k MAC
r -t 1.017566541 -s 1 -d -1 -p ARP -e 28 -c 2 -a 0 -i 0 -k MAC
r -t 1.017566546 -s 4 -d -1 -p ARP -e 28 -c 2 -a 0 -i 0 -k MAC
r -t 1.017566587 -s 6 -d -1 -p ARP -e 28 -c 2 -a 0 -i 0 -k MAC
r -t 1.017566615 -s 2 -d -1 -p ARP -e 28 -c 2 -a 0 -i 0 -k MAC
r -t 1.017566801 -s 8 -d -1 -p ARP -e 28 -c 2 -a 0 -i 0 -k MAC
r -t 1.017566809 -s 9 -d -1 -p ARP -e 28 -c 2 -a 0 -i 0 -k MAC
r -t 1.017566873 -s 5 -d -1 -p ARP -e 28 -c 2 -a 0 -i 0 -k MAC
r -t 1.017566906 -s 0 -d -1 -p ARP -e 28 -c 2 -a 0 -i 0 -k MAC
r -t 1.017566912 -s 10 -d -1 -p ARP -e 28 -c 2 -a 0 -i 0 -k MAC
r -t 1.017566944 -s 11 -d -1 -p ARP -e 28 -c 2 -a 0 -i 0 -k MAC
r -t 1.017566957 -s 12 -d -1 -p ARP -e 28 -c 2 -a 0 -i 0 -k MAC
r -t 1.017566975 -s 13 -d -1 -p ARP -e 28 -c 2 -a 0 -i 0 -k MAC
+ -t 1.017756975 -s 13 -d -1 -p AODV -e 106 -c 2 -a 0 -i 0 -k MAC 
- -t 1.017756975 -s 13 -d -1 -p AODV -e 106 -c 2 -a 0 -i 0 -k MAC
h -t 1.017756975 -s 13 -d -1 -p AODV -e 106 -c 2 -a 0 -i 0 -k MAC
r -t 1.018605321 -s 15 -d -1 -p AODV -e 48 -c 2 -a 0 -i 0 -k MAC
r -t 1.018605427 -s 4 -d -1 -p AODV -e 48 -c 2 -a 0 -i 0 -k MAC
r -t 1.018605466 -s 12 -d -1 -p AODV -e 48 -c 2 -a 0 -i 0 -k MAC
r -t 1.018605494 -s 5 -d -1 -p AODV -e 48 -c 2 -a 0 -i 0 -k MAC
r -t 1.018605597 -s 6 -d -1 -p AODV -e 48 -c 2 -a 0 -i 0 -k MAC
r -t 1.018605730 -s 2 -d -1 -p AODV -e 48 -c 2 -a 0 -i 0 -k MAC
r -t 1.018605769 -s 3 -d -1 -p AODV -e 48 -c 2 -a 0 -i 0 -k MAC
r -t 1.018630321 -s 15 -d -1 -p AODV -e 48 -c 2 -a 0 -i 0 -k RTR
r -t 1.018630427 -s 4 -d -1 -p AODV -e 48 -c 2 -a 0 -i 0 -k RTR
r -t 1.018630466 -s 12 -d -1 -p AODV -e 48 -c 2 -a 0 -i 0 -k RTR
r -t 1.018630494 -s 5 -d -1 -p AODV -e 48 -c 2 -a 0 -i 0 -k RTR
r -t 1.018630597 -s 6 -d -1 -p AODV -e 48 -c 2 -a 0 -i 0 -k RTR
r -t 1.018630730 -s 2 -d -1 -p AODV -e 48 -c 2 -a 0 -i 0 -k RTR
r -t 1.018630769 -s 3 -d -1 -p AODV -e 48 -c 2 -a 0 -i 0 -k RTR
+ -t 1.018695427 -s 4 -d -1 -p AODV -e 106 -c 2 -a 0 -i 0 -k MAC 
- -t 1.018695427 -s 4 -d -1 -p AODV -e 106 -c 2 -a 0 -i 0 -k MAC
h -t 1.018695427 -s 4 -d -1 -p AODV -e 106 -c 2 -a 0 -i 0 -k MAC
r -t 1.019543792 -s 2 -d -1 -p AODV -e 48 -c 2 -a 0 -i 0 -k MAC
r -t 1.019543794 -s 3 -d -1 -p AODV -e 48 -c 2 -a 0 -i 0 -k MAC
r -t 1.019543818 -s 5 -d -1 -p AODV -e 48 -c 2 -a 0 -i 0 -k MAC
r -t 1.019543852 -s 6 -d -1 -p AODV -e 48 -c 2 -a 0 -i 0 -k MAC
r -t 1.019543880 -s 13 -d -1 -p AODV -e 48 -c 2 -a 0 -i 0 -k MAC
r -t 1.019544050 -s 12 -d -1 -p AODV -e 48 -c 2 -a 0 -i 0 -k MAC
r -t 1.019544067 -s 1 -d -1 -p AODV -e 48 -c 2 -a 0 -i 0 -k MAC
r -t 1.019544123 -s 7 -d -1 -p AODV -e 48 -c 2 -a 0 -i 0 -k MAC
r -t 1.019544144 -s 15 -d -1 -p AODV -e 48 -c 2 -a 0 -i 0 -k MAC
r -t 1.019544154 -s 0 -d -1 -p AODV -e 48 -c 2 -a 0 -i 0 -k MAC
r -t 1.019568792 -s 2 -d -1 -p AODV -e 48 -c 2 -a 0 -i 0 -k RTR
r -t 1.019568794 -s 3 -d -1 -p AODV -e 48 -c 2 -a 0 -i 0 -k RTR
r -t 1.019568818 -s 5 -d -1 -p AODV -e 48 -c 2 -a 0 -i 0 -k RTR
r -t 1.019568852 -s 6 -d -1 -p AODV -e 48 -c 2 -a 0 -i 0 -k RTR
r -t 1.019568880 -s 13 -d -1 -p AODV -e 48 -c 2 -a 0 -i 0 -k RTR
r -t 1.019569050 -s 12 -d -1 -p AODV -e 48 -c 2 -a 0 -i 0 -k RTR
r -t 1.019569067 -s 1 -d -1 -p AODV -e 48 -c 2 -a 0 -i 0 -k RTR
r -t 1.019569123 -s 7 -d -1 -p AODV -e 48 -c 2 -a 0 -i 0 -k RTR
r -t 1.019569144 -s 15 -d -1 -p AODV -e 48 -c 2 -a 0 -i 0 -k RTR
r -t 1.019569154 -s 0 -d -1 -p AODV -e 48 -c 2 -a 0 -i 0 -k RTR
+ -t 1.019614144 -s 15 -d -1 -p AODV -e 106 -c 2 -a 0 -i 0 -k MAC 
- -t 1.019614144 -s 15 -d -1 -p AODV -e 106 -c 2 -a 0 -i 0 -k MAC
h -t 1.019614144 -s 15 -d -1 -p AODV -e 106 -c 2 -a 0 -i 0 -k MAC
r -t 1.020462486 -s 12 -d -1 -p AODV -e 48 -c 2 -a 0 -i 0 -k MAC
r -t 1.020462490 -s 13 -d -1 -p AODV -e 48 -c 2 -a 0 -i 0 -k MAC
r -t 1.020462822 -s 6 -d -1 -p AODV -e 48 -c 2 -a 0 -i 0 -k MAC
r -t 1.020462832 -s 14 -d -1 -p AODV -e 48 -c 2 -a 0 -i 0 -k MAC
r -t 1.020462860 -s 4 -d -1 -p AODV -e 48 -c 2 -a 0 -i 0 -k MAC
r -t 1.020487486 -s 12 -d -1 -p AODV -e 48 -c 2 -a 0 -i 0 -k RTR
r -t 1.020487490 -s 13 -d -1 -p AODV -e 48 -c 2 -a 0 -i 0 -k RTR
r -t 1.020487822 -s 6 -d -1 -p AODV -e 48 -c 2 -a 0 -i 0 -k RTR
r -t 1.020487832 -s 14 -d -1 -p AODV -e 48 -c 2 -a 0 -i 0 -k RTR
r -t 1.020487860 -s 4 -d -1 -p AODV -e 48 -c 2 -a 0 -i 0 -k RTR
+ -t 1.020612832 -s 14 -d -1 -p AODV -e 106 -c 2 -a 0 -i 0 -k MAC 
- -t 1.020612832 -s 14 -d -1 -p AODV -e 106 -c 2 -a 0 -i 0 -k MAC
h -t 1.020612832 -s 14 -d -1 -p AODV -e 106 -c 2 -a 0 -i 0 -k MAC
r -t 1.021461188 -s 11 -d -1 -p AODV -e 48 -c 2 -a 0 -i 0 -k MAC
r -t 1.021461251 -s 12 -d -1 -p AODV -e 48 -c 2 -a 0 -i 0 -k MAC
r -t 1.021461445 -s 6 -d -1 -p AODV -e 48 -c 2 -a 0 -i 0 -k MAC
r -t 1.021461492 -s 10 -d -1 -p AODV -e 48 -c 2 -a 0 -i 0 -k MAC
r -t 1.021461520 -s 15 -d -1 -p AODV -e 48 -c 2 -a 0 -i 0 -k MAC
r -t 1.021486188 -s 11 -d -1 -p AODV -e 48 -c 2 -a 0 -i 0 -k RTR
r -t 1.021486251 -s 12 -d -1 -p AODV -e 48 -c 2 -a 0 -i 0 -k RTR
r -t 1.021486445 -s 6 -d -1 -p AODV -e 48 -c 2 -a 0 -i 0 -k RTR
r -t 1.021486492 -s 10 -d -1 -p AODV -e 48 -c 2 -a 0 -i 0 -k RTR
r -t 1.021486520 -s 15 -d -1 -p AODV -e 48 -c 2 -a 0 -i 0 -k RTR
+ -t 1.022056089 -s 8 -d -1 -p AODV -e 106 -c 2 -a 0 -i 0 -k MAC 
- -t 1.022056089 -s 8 -d -1 -p AODV -e 106 -c 2 -a 0 -i 0 -k MAC
h -t 1.022056089 -s 8 -d -1 -p AODV -e 106 -c 2 -a 0 -i 0 -k MAC
r -t 1.022904391 -s 7 -d -1 -p AODV -e 48 -c 2 -a 0 -i 0 -k MAC
r -t 1.022904410 -s 9 -d -1 -p AODV -e 48 -c 2 -a 0 -i 0 -k MAC
r -t 1.022904657 -s 1 -d -1 -p AODV -e 48 -c 2 -a 0 -i 0 -k MAC
r -t 1.022904709 -s 3 -d -1 -p AODV -e 48 -c 2 -a 0 -i 0 -k MAC
r -t 1.022904744 -s 10 -d -1 -p AODV -e 48 -c 2 -a 0 -i 0 -k MAC
r -t 1.022904919 -s 6 -d -1 -p AODV -e 48 -c 2 -a 0 -i 0 -k MAC
r -t 1.022929391 -s 7 -d -1 -p AODV -e 48 -c 2 -a 0 -i 0 -k RTR
r -t 1.022929410 -s 9 -d -1 -p AODV -e 48 -c 2 -a 0 -i 0 -k RTR
r -t 1.022929657 -s 1 -d -1 -p AODV -e 48 -c 2 -a 0 -i 0 -k RTR
r -t 1.022929709 -s 3 -d -1 -p AODV -e 48 -c 2 -a 0 -i 0 -k RTR
r -t 1.022929744 -s 10 -d -1 -p AODV -e 48 -c 2 -a 0 -i 0 -k RTR
r -t 1.022929919 -s 6 -d -1 -p AODV -e 48 -c 2 -a 0 -i 0 -k RTR
+ -t 1.023339210 -s 0 -d -1 -p AODV -e 106 -c 2 -a 0 -i 0 -k MAC 
- -t 1.023339210 -s 0 -d -1 -p AODV -e 106 -c 2 -a 0 -i 0 -k MAC
h -t 1.023339210 -s 0 -d -1 -p AODV -e 106 -c 2 -a 0 -i 0 -k MAC
r -t 1.024187572 -s 2 -d -1 -p AODV -e 48 -c 2 -a 0 -i 0 -k MAC
r -t 1.024187763 -s 1 -d -1 -p AODV -e 48 -c 2 -a 0 -i 0 -k MAC
r -t 1.024187820 -s 5 -d -1 -p AODV -e 48 -c 2 -a 0 -i 0 -k MAC
r -t 1.024187936 -s 4 -d -1 -p AODV -e 48 -c 2 -a 0 -i 0 -k MAC
r -t 1.024187937 -s 3 -d -1 -p AODV -e 48 -c 2 -a 0 -i 0 -k MAC
r -t 1.024212572 -s 2 -d -1 -p AODV -e 48 -c 2 -a 0 -i 0 -k RTR
r -t 1.024212763 -s 1 -d -1 -p AODV -e 48 -c 2 -a 0 -i 0 -k RTR
r -t 1.024212820 -s 5 -d -1 -p AODV -e 48 -c 2 -a 0 -i 0 -k RTR
r -t 1.024212936 -s 4 -d -1 -p AODV -e 48 -c 2 -a 0 -i 0 -k RTR
r -t 1.024212937 -s 3 -d -1 -p AODV -e 48 -c 2 -a 0 -i 0 -k RTR
+ -t 1.024357820 -s 5 -d -1 -p RTS -e 44 -c 2 -a 0 -i 0 -k MAC 
- -t 1.024357820 -s 5 -d -1 -p RTS -e 44 -c 2 -a 0 -i 0 -k MAC
h -t 1.024357820 -s 5 -d -1 -p RTS -e 44 -c 2 -a 0 -i 0 -k MAC
r -t 1.024710513 -s 3 -d -1 -p RTS -e 44 -c 2 -a 0 -i 0 -k MAC
+ -t 1.024720513 -s 3 -d -1 -p CTS -e 38 -c 2 -a 0 -i 0 -k MAC 
- -t 1.024720513 -s 3 -d -1 -p CTS -e 38 -c 2 -a 0 -i 0 -k MAC
h -t 1.024720513 -s 3 -d -1 -p CTS -e 38 -c 2 -a 0 -i 0 -k MAC
r -t 1.025025206 -s 5 -d -1 -p CTS -e 38 -c 2 -a 0 -i 0 -k MAC
+ -t 1.025035206 -s 5 -d -1 -p ARP -e 86 -c 2 -a 0 -i 0 -k MAC 
- -t 1.025035206 -s 5 -d -1 -p ARP -e 86 -c 2 -a 0 -i 0 -k MAC
h -t 1.025035206 -s 5 -d -1 -p ARP -e 86 -c 2 -a 0 -i 0 -k MAC
r -t 1.025723900 -s 3 -d -1 -p ARP -e 28 -c 2 -a 0 -i 0 -k MAC
+ -t 1.025733900 -s 3 -d -1 -p ACK -e 38 -c 2 -a 0 -i 0 -k MAC 
- -t 1.025733900 -s 3 -d -1 -p ACK -e 38 -c 2 -a 0 -i 0 -k MAC
h -t 1.025733900 -s 3 -d -1 -p ACK -e 38 -c 2 -a 0 -i 0 -k MAC
r -t 1.026038593 -s 5 -d -1 -p ACK -e 38 -c 2 -a 0 -i 0 -k MAC
+ -t 1.026407900 -s 3 -d -1 -p RTS -e 44 -c 2 -a 0 -i 0 -k MAC 
- -t 1.026407900 -s 3 -d -1 -p RTS -e 44 -c 2 -a 0 -i 0 -k MAC
h -t 1.026407900 -s 3 -d -1 -p RTS -e 44 -c 2 -a 0 -i 0 -k MAC
r -t 1.026760593 -s 5 -d -1 -p RTS -e 44 -c 2 -a 0 -i 0 -k MAC
+ -t 1.026770593 -s 5 -d -1 -p CTS -e 38 -c 2 -a 0 -i 0 -k MAC 
- -t 1.026770593 -s 5 -d -1 -p CTS -e 38 -c 2 -a 0 -i 0 -k MAC
h -t 1.026770593 -s 5 -d -1 -p CTS -e 38 -c 2 -a 0 -i 0 -k MAC
r -t 1.027075287 -s 3 -d -1 -p CTS -e 38 -c 2 -a 0 -i 0 -k MAC
+ -t 1.027085287 -s 3 -d 5 -p AODV -e 102 -c 2 -a 0 -i 0 -k MAC 
- -t 1.027085287 -s 3 -d 5 -p AODV -e 102 -c 2 -a 0 -i 0 -k MAC
h -t 1.027085287 -s 3 -d 5 -p AODV -e 102 -c 2 -a 0 -i 0 -k MAC
r -t 1.027901980 -s 5 -d 5 -p AODV -e 44 -c 2 -a 0 -i 0 -k MAC
+ -t 1.027911980 -s 5 -d -1 -p ACK -e 38 -c 2 -a 0 -i 0 -k MAC 
- -t 1.027911980 -s 5 -d -1 -p ACK -e 38 -c 2 -a 0 -i 0 -k MAC
h -t 1.027911980 -s 5 -d -1 -p ACK -e 38 -c 2 -a 0 -i 0 -k MAC
+ -t 1.027926980 -s 5 -d 3 -p tcp -e 40 -c 2 -a 0 -i 0 -k RTR 
- -t 1.027926980 -s 5 -d 3 -p tcp -e 40 -c 2 -a 0 -i 0 -k RTR
h -t 1.027926980 -s 5 -d 3 -p tcp -e 40 -c 2 -a 0 -i 0 -k RTR
r -t 1.028216674 -s 3 -d -1 -p ACK -e 38 -c 2 -a 0 -i 0 -k MAC
+ -t 1.028485980 -s 5 -d -1 -p RTS -e 44 -c 2 -a 0 -i 0 -k MAC 
- -t 1.028485980 -s 5 -d -1 -p RTS -e 44 -c 2 -a 0 -i 0 -k MAC
h -t 1.028485980 -s 5 -d -1 -p RTS -e 44 -c 2 -a 0 -i 0 -k MAC
r -t 1.028838674 -s 3 -d -1 -p RTS -e 44 -c 2 -a 0 -i 0 -k MAC
+ -t 1.028848674 -s 3 -d -1 -p CTS -e 38 -c 2 -a 0 -i 0 -k MAC 
- -t 1.028848674 -s 3 -d -1 -p CTS -e 38 -c 2 -a 0 -i 0 -k MAC
h -t 1.028848674 -s 3 -d -1 -p CTS -e 38 -c 2 -a 0 -i 0 -k MAC
r -t 1.029153368 -s 5 -d -1 -p CTS -e 38 -c 2 -a 0 -i 0 -k MAC
+ -t 1.029163368 -s 5 -d 3 -p tcp -e 98 -c 2 -a 0 -i 0 -k MAC 
- -t 1.029163368 -s 5 -d 3 -p tcp -e 98 -c 2 -a 0 -i 0 -k MAC
h -t 1.029163368 -s 5 -d 3 -p tcp -e 98 -c 2 -a 0 -i 0 -k MAC
r -t 1.029948062 -s 3 -d 3 -p tcp -e 40 -c 2 -a 0 -i 0 -k MAC
+ -t 1.029958062 -s 3 -d -1 -p ACK -e 38 -c 2 -a 0 -i 0 -k MAC 
- -t 1.029958062 -s 3 -d -1 -p ACK -e 38 -c 2 -a 0 -i 0 -k MAC
h -t 1.029958062 -s 3 -d -1 -p ACK -e 38 -c 2 -a 0 -i 0 -k MAC