s -t 0.030050775 -Hs 0 -Hd -1 -Ni 0 -Nx 260.00 -Ny 415.00 -Nz 0.00 -Ne 100.000000 -Nl RTR -Nw --- -Ma 0 -Md 0 -Ms 0 -Mt 0 -Is 0.255 -Id -1.255 -It message -Il 32 -If 0 -Ii 0 -Iv 32 
s -t 0.030285775 -Hs 0 -Hd -1 -Ni 0 -Nx 260.00 -Ny 415.00 -Nz 0.00 -Ne 100.000000 -Nl MAC -Nw --- -Ma 0 -Md ffffffff -Ms 0 -Mt 800 -Is 0.255 -Id -1.255 -It message -Il 90 -If 0 -Ii 0 -Iv 32 
N -t 0.030286 -n 7 -e 99.981324
N -t 0.030286 -n 8 -e 99.981324
N -t 0.030286 -n 1 -e 99.981324
N -t 0.030287 -n 6 -e 99.981324
N -t 0.030287 -n 2 -e 99.981324
N -t 0.030287 -n 9 -e 99.981324
N -t 0.030287 -n 3 -e 99.981324
N -t 0.030287 -n 5 -e 99.981324
N -t 0.030288 -n 4 -e 99.981323
r -t 0.031006351 -Hs 7 -Hd -1 -Ni 7 -Nx 416.00 -Ny 341.00 -Nz 0.00 -Ne 99.981324 -Nl MAC -Nw --- -Ma 0 -Md ffffffff -Ms 0 -Mt 800 -Is 0.255 -Id -1.255 -It message -Il 32 -If 0 -Ii 0 -Iv 32 
r -t 0.031006419 -Hs 8 -Hd -1 -Ni 8 -Nx 315.00 -Ny 230.00 -Nz 0.00 -Ne 99.981324 -Nl MAC -Nw --- -Ma 0 -Md ffffffff -Ms 0 -Mt 800 -Is 0.255 -Id -1.255 -It message -Il 32 -If 0 -Ii 0 -Iv 32 
r -t 0.031006435 -Hs 1 -Hd -1 -Ni 1 -Nx 429.00 -Ny 518.00 -Nz 0.00 -Ne 99.981324 -Nl MAC -Nw --- -Ma 0 -Md ffffffff -Ms 0 -Mt 800 -Is 0.255 -Id -1.255 -It message -Il 32 -If 0 -Ii 0 -Iv 32 
r -t 0.031031351 -Hs 7 -Hd -1 -Ni 7 -Nx 416.00 -Ny 341.00 -Nz 0.00 -Ne 99.981324 -Nl RTR -Nw --- -Ma 0 -Md ffffffff -Ms 0 -Mt 800 -Is 0.255 -Id -1.255 -It message -Il 32 -If 0 -Ii 0 -Iv 32 
r -t 0.031031419 -Hs 8 -Hd -1 -Ni 8 -Nx 315.00 -Ny 230.00 -Nz 0.00 -Ne 99.981324 -Nl RTR -Nw --- -Ma 0 -Md ffffffff -Ms 0 -Mt 800 -Is 0.255 -Id -1.255 -It message -Il 32 -If 0 -Ii 0 -Iv 32 
r -t 0.031031435 -Hs 1 -Hd -1 -Ni 1 -Nx 429.00 -Ny 518.00 -Nz 0.00 -Ne 99.981324 -Nl RTR -Nw --- -Ma 0 -Md ffffffff -Ms 0 -Mt 800 -Is 0.255 -Id -1.255 -It message -Il 32 -If 0 -Ii 0 -Iv 32 
s -t 0.184842620 -Hs 1 -Hd -1 -Ni 1 -Nx 429.00 -Ny 518.00 -Nz 0.00 -Ne 99.981324 -Nl RTR -Nw --- -Ma 0 -Md 0 -Ms 0 -Mt 0 -Is 1.255 -Id -1.255 -It message -Il 32 -If 0 -Ii 1 -Iv 32 
s -t 0.185397620 -Hs 1 -Hd -1 -Ni 1 -Nx 429.00 -Ny 518.00 -Nz 0.00 -Ne 99.981324 -Nl MAC -Nw --- -Ma 0 -Md ffffffff -Ms 1 -Mt 800 -Is 1.255 -Id -1.255 -It message -Il 90 -If 0 -Ii 1 -Iv 32 
N -t 0.185398 -n 7 -e 99.888185
N -t 0.185398 -n 2 -e 99.888185
N -t 0.185398 -n 0 -e 99.888041
N -t 0.185398 -n 3 -e 99.888185
N -t 0.185399 -n 6 -e 99.888185
N -t 0.185399 -n 8 -e 99.888185
N -t 0.185399 -n 4 -e 99.888185
N -t 0.185399 -n 5 -e 99.888185
N -t 0.185399 -n 9 -e 99.888185
r -t 0.186118211 -Hs 7 -Hd -1 -Ni 7 -Nx 416.00 -Ny 341.00 -Nz 0.00 -Ne 99.888185 -Nl MAC -Nw --- -Ma 0 -Md ffffffff -Ms 1 -Mt 800 -Is 1.255 -Id -1.255 -It message -Il 32 -If 0 -Ii 1 -Iv 32 
r -t 0.186118242 -Hs 2 -Hd -1 -Ni 2 -Nx 582.00 -Ny 411.00 -Nz 0.00 -Ne 99.888185 -Nl MAC -Nw --- -Ma 0 -Md ffffffff -Ms 1 -Mt 800 -Is 1.255 -Id -1.255 -It message -Il 32 -If 0 -Ii 1 -Iv 32 
r -t 0.186118279 -Hs 0 -Hd -1 -Ni 0 -Nx 260.00 -Ny 415.00 -Nz 0.00 -Ne 99.888041 -Nl MAC -Nw --- -Ma 0 -Md ffffffff -Ms 1 -Mt 800 -Is 1.255 -Id -1.255 -It message -Il 32 -If 0 -Ii 1 -Iv 32 
r -t 0.186118450 -Hs 3 -Hd -1 -Ni 3 -Nx 678.00 -Ny 517.00 -Nz 0.00 -Ne 99.888185 -Nl MAC -Nw --- -Ma 0 -Md ffffffff -Ms 1 -Mt 800 -Is 1.255 -Id -1.255 -It message -Il 32 -If 0 -Ii 1 -Iv 32 
r -t 0.186143211 -Hs 7 -Hd -1 -Ni 7 -Nx 416.00 -Ny 341.00 -Nz 0.00 -Ne 99.888185 -Nl RTR -Nw --- -Ma 0 -Md ffffffff -Ms 1 -Mt 800 -Is 1.255 -Id -1.255 -It message -Il 32 -If 0 -Ii 1 -Iv 32 
r -t 0.186143242 -Hs 2 -Hd -1 -Ni 2 -Nx 582.00 -Ny 411.00 -Nz 0.00 -Ne 99.888185 -Nl RTR -Nw --- -Ma 0 -Md ffffffff -Ms 1 -Mt 800 -Is 1.255 -Id -1.255 -It message -Il 32 -If 0 -Ii 1 -Iv 32 
r -t 0.186143279 -Hs 0 -Hd -1 -Ni 0 -Nx 260.00 -Ny 415.00 -Nz 0.00 -Ne 99.888041 -Nl RTR -Nw --- -Ma 0 -Md ffffffff -Ms 1 -Mt 800 -Is 1.255 -Id -1.255 -It message -Il 32 -If 0 -Ii 1 -Iv 32 
r -t 0.186143450 -Hs 3 -Hd -1 -Ni 3 -Nx 678.00 -Ny 517.00 -Nz 0.00 -Ne 99.888185 -Nl RTR -Nw --- -Ma 0 -Md ffffffff -Ms 1 -Mt 800 -Is 1.255 -Id -1.255 -It message -Il 32 -If 0 -Ii 1 -Iv 32 
s -t 0.477273789 -Hs 6 -Hd -1 -Ni 6 -Nx 516.00 -Ny 222.00 -Nz 0.00 -Ne 99.888185 -Nl RTR -Nw --- -Ma 0 -Md 0 -Ms 0 -Mt 0 -Is 6.255 -Id -1.255 -It message -Il 32 -If 0 -Ii 2 -Iv 32 
s -t 0.477568789 -Hs 6 -Hd -1 -Ni 6 -Nx 516.00 -Ny 222.00 -Nz 0.00 -Ne 99.888185 -Nl MAC -Nw --- -Ma 0 -Md ffffffff -Ms 6 -Mt 800 -Is 6.255 -Id -1.255 -It message -Il 90 -If 0 -Ii 2 -Iv 32 
N -t 0.477569 -n 9 -e 99.712810
N -t 0.477569 -n 7 -e 99.712810
N -t 0.477569 -n 5 -e 99.712810
N -t 0.477569 -n 2 -e 99.712810
N -t 0.477569 -n 8 -e 99.712810
N -t 0.477570 -n 1 -e 99.712666
N -t 0.477570 -n 0 -e 99.712666
N -t 0.477570 -n 4 -e 99.712810
N -t 0.477570 -n 3 -e 99.712810
r -t 0.478289263 -Hs 9 -Hd -1 -Ni 9 -Nx 514.00 -Ny 80.00 -Nz 0.00 -Ne 99.712810 -Nl MAC -Nw --- -Ma 0 -Md ffffffff -Ms 6 -Mt 800 -Is 6.255 -Id -1.255 -It message -Il 32 -If 0 -Ii 2 -Iv 32 
r -t 0.478289307 -Hs 7 -Hd -1 -Ni 7 -Nx 416.00 -Ny 341.00 -Nz 0.00 -Ne 99.712810 -Nl MAC -Nw --- -Ma 0 -Md ffffffff -Ms 6 -Mt 800 -Is 6.255 -Id -1.255 -It message -Il 32 -If 0 -Ii 2 -Iv 32 
r -t 0.478289396 -Hs 5 -Hd -1 -Ni 5 -Nx 698.00 -Ny 230.00 -Nz 0.00 -Ne 99.712810 -Nl MAC -Nw --- -Ma 0 -Md ffffffff -Ms 6 -Mt 800 -Is 6.255 -Id -1.255 -It message -Il 32 -If 0 -Ii 2 -Iv 32 
r -t 0.478289457 -Hs 2 -Hd -1 -Ni 2 -Nx 582.00 -Ny 411.00 -Nz 0.00 -Ne 99.712810 -Nl MAC -Nw --- -Ma 0 -Md ffffffff -Ms 6 -Mt 800 -Is 6.255 -Id -1.255 -It message -Il 32 -If 0 -Ii 2 -Iv 32 
r -t 0.478289460 -Hs 8 -Hd -1 -Ni 8 -Nx 315.00 -Ny 230.00 -Nz 0.00 -Ne 99.712810 -Nl MAC -Nw --- -Ma 0 -Md ffffffff -Ms 6 -Mt 800 -Is 6.255 -Id -1.255 -It message -Il 32 -If 0 -Ii 2 -Iv 32 
r -t 0.478314263 -Hs 9 -Hd -1 -Ni 9 -Nx 514.00 -Ny 80.00 -Nz 0.00 -Ne 99.712810 -Nl RTR -Nw --- -Ma 0 -Md ffffffff -Ms 6 -Mt 800 -Is 6.255 -Id -1.255 -It message -Il 32 -If 0 -Ii 2 -Iv 32 
r -t 0.478314307 -Hs 7 -Hd -1 -Ni 7 -Nx 416.00 -Ny 341.00 -Nz 0.00 -Ne 99.712810 -Nl RTR -Nw --- -Ma 0 -Md ffffffff -Ms 6 -Mt 800 -Is 6.255 -Id -1.255 -It message -Il 32 -If 0 -Ii 2 -Iv 32 
r -t 0.478314396 -Hs 5 -Hd -1 -Ni 5 -Nx 698.00 -Ny 230.00 -Nz 0.00 -Ne 99.712810 -Nl RTR -Nw --- -Ma 0 -Md ffffffff -Ms 6 -Mt 800 -Is 6.255 -Id -1.255 -It message -Il 32 -If 0 -Ii 2 -Iv 32 
r -t 0.478314457 -Hs 2 -Hd -1 -Ni 2 -Nx 582.00 -Ny 411.00 -Nz 0.00 -Ne 99.712810 -Nl RTR -Nw --- -Ma 0 -Md ffffffff -Ms 6 -Mt 800 -Is 6.255 -Id -1.255 -It message -Il 32 -If 0 -Ii 2 -Iv 32 
r -t 0.478314460 -Hs 8 -Hd -1 -Ni 8 -Nx 315.00 -Ny 230.00 -Nz 0.00 -Ne 99.712810 -Nl RTR -Nw --- -Ma 0 -Md ffffffff -Ms 6 -Mt 800 -Is 6.255 -Id -1.255 -It message -Il 32 -If 0 -Ii 2 -Iv 32 
s -t 0.500000000 -Hs 8 -Hd -2 -Ni 8 -Nx 315.00 -Ny 230.00 -Nz 0.00 -Ne 99.712810 -Nl AGT -Nw --- -Ma 0 -Md 0 -Ms 0 -Mt 0 -Is 8.0 -Id 3.0 -It tcp -Il 40 -If 0 -Ii 3 -Iv 32 -Pn tcp -Ps 0 -Pa 0 -Pf 0 -Po 0 
r -t 0.500000000 -Hs 8 -Hd -2 -Ni 8 -Nx 315.00 -Ny 230.00 -Nz 0.00 -Ne 99.712810 -Nl RTR -Nw --- -Ma 0 -Md 0 -Ms 0 -Mt 0 -Is 8.0 -Id 3.0 -It tcp -Il 40 -If 0 -Ii 3 -Iv 32 -Pn tcp -Ps 0 -Pa 0 -Pf 0 -Po 0 
s -t 0.623344604 -Hs 8 -Hd -1 -Ni 8 -Nx 315.00 -Ny 230.00 -Nz 0.00 -Ne 99.712810 -Nl RTR -Nw --- -Ma 0 -Md 0 -Ms 0 -Mt 0 -Is 8.255 -Id -1.255 -It message -Il 32 -If 0 -Ii 4 -Iv 32 
s -t 0.623599604 -Hs 8 -Hd -1 -Ni 8 -Nx 315.00 -Ny 230.00 -Nz 0.00 -Ne 99.712810 -Nl MAC -Nw --- -Ma 0 -Md ffffffff -Ms 8 -Mt 800 -Is 8.255 -Id -1.255 -It message -Il 90 -If 0 -Ii 4 -Iv 32 
N -t 0.623600 -n 7 -e 99.625120
N -t 0.623600 -n 0 -e 99.624976
N -t 0.623600 -n 6 -e 99.624976
N -t 0.623600 -n 9 -e 99.625120
N -t 0.623601 -n 1 -e 99.624976
N -t 0.623601 -n 2 -e 99.625120
N -t 0.623601 -n 5 -e 99.625119
N -t 0.623601 -n 3 -e 99.625119
N -t 0.623601 -n 4 -e 99.625119
r -t 0.624320104 -Hs 7 -Hd -1 -Ni 7 -Nx 416.00 -Ny 341.00 -Nz 0.00 -Ne 99.625120 -Nl MAC -Nw --- -Ma 0 -Md ffffffff -Ms 8 -Mt 800 -Is 8.255 -Id -1.255 -It message -Il 32 -If 0 -Ii 4 -Iv 32 
r -t 0.624320247 -Hs 0 -Hd -1 -Ni 0 -Nx 260.00 -Ny 415.00 -Nz 0.00 -Ne 99.624976 -Nl MAC -Nw --- -Ma 0 -Md ffffffff -Ms 8 -Mt 800 -Is 8.255 -Id -1.255 -It message -Il 32 -If 0 -Ii 4 -Iv 32 
r -t 0.624320274 -Hs 6 -Hd -1 -Ni 6 -Nx 516.00 -Ny 222.00 -Nz 0.00 -Ne 99.624976 -Nl MAC -Nw --- -Ma 0 -Md ffffffff -Ms 8 -Mt 800 -Is 8.255 -Id -1.255 -It message -Il 32 -If 0 -Ii 4 -Iv 32 
r -t 0.624320434 -Hs 9 -Hd -1 -Ni 9 -Nx 514.00 -Ny 80.00 -Nz 0.00 -Ne 99.625120 -Nl MAC -Nw --- -Ma 0 -Md ffffffff -Ms 8 -Mt 800 -Is 8.255 -Id -1.255 -It message -Il 32 -If 0 -Ii 4 -Iv 32 
r -t 0.624345104 -Hs 7 -Hd -1 -Ni 7 -Nx 416.00 -Ny 341.00 -Nz 0.00 -Ne 99.625120 -Nl RTR -Nw --- -Ma 0 -Md ffffffff -Ms 8 -Mt 800 -Is 8.255 -Id -1.255 -It message -Il 32 -If 0 -Ii 4 -Iv 32 
r -t 0.624345247 -Hs 0 -Hd -1 -Ni 0 -Nx 260.00 -Ny 415.00 -Nz 0.00 -Ne 99.624976 -Nl RTR -Nw --- -Ma 0 -Md ffffffff -Ms 8 -Mt 800 -Is 8.255 -Id -1.255 -It message -Il 32 -If 0 -Ii 4 -Iv 32 
r -t 0.624345274 -Hs 6 -Hd -1 -Ni 6 -Nx 516.00 -Ny 222.00 -Nz 0.00 -Ne 99.624976 -Nl RTR -Nw --- -Ma 0 -Md ffffffff -Ms 8 -Mt 800 -Is 8.255 -Id -1.255 -It message -Il 32 -If 0 -Ii 4 -Iv 32 
r -t 0.624345434 -Hs 9 -Hd -1 -Ni 9 -Nx 514.00 -Ny 80.00 -Nz 0.00 -Ne 99.625120 -Nl RTR -Nw --- -Ma 0 -Md ffffffff -Ms 8 -Mt 800 -Is 8.255 -Id -1.255 -It message -Il 32 -If 0 -Ii 4 -Iv 32 
s -t 0.634321795 -Hs 4 -Hd -1 -Ni 4 -Nx 791.00 -Ny 413.00 -Nz 0.00 -Ne 99.625119 -Nl RTR -Nw --- -Ma 0 -Md 0 -Ms 0 -Mt 0 -Is 4.255 -Id -1.255 -It message -Il 32 -If 0 -Ii 5 -Iv 32 
s -t 0.634756795 -Hs 4 -Hd -1 -Ni 4 -Nx 791.00 -Ny 413.00 -Nz 0.00 -Ne 99.625119 -Nl MAC -Nw --- -Ma 0 -Md ffffffff -Ms 4 -Mt 800 -Is 4.255 -Id -1.255 -It message -Il 90 -If 0 -Ii 5 -Iv 32 
N -t 0.634757 -n 3 -e 99.618354
N -t 0.634757 -n 5 -e 99.618354
N -t 0.634757 -n 2 -e 99.618354
N -t 0.634758 -n 6 -e 99.618209
N -t 0.634758 -n 1 -e 99.618209
N -t 0.634758 -n 7 -e 99.618353
N -t 0.634758 -n 9 -e 99.618353
N -t 0.634758 -n 8 -e 99.618209
N -t 0.634759 -n 0 -e 99.618209
r -t 0.635477307 -Hs 3 -Hd -1 -Ni 3 -Nx 678.00 -Ny 517.00 -Nz 0.00 -Ne 99.618354 -Nl MAC -Nw --- -Ma 0 -Md ffffffff -Ms 4 -Mt 800 -Is 4.255 -Id -1.255 -It message -Il 32 -If 0 -Ii 5 -Iv 32 
r -t 0.635477480 -Hs 5 -Hd -1 -Ni 5 -Nx 698.00 -Ny 230.00 -Nz 0.00 -Ne 99.618354 -Nl MAC -Nw --- -Ma 0 -Md ffffffff -Ms 4 -Mt 800 -Is 4.255 -Id -1.255 -It message -Il 32 -If 0 -Ii 5 -Iv 32 
r -t 0.635477492 -Hs 2 -Hd -1 -Ni 2 -Nx 582.00 -Ny 411.00 -Nz 0.00 -Ne 99.618354 -Nl MAC -Nw --- -Ma 0 -Md ffffffff -Ms 4 -Mt 800 -Is 4.255 -Id -1.255 -It message -Il 32 -If 0 -Ii 5 -Iv 32 
r -t 0.635502307 -Hs 3 -Hd -1 -Ni 3 -Nx 678.00 -Ny 517.00 -Nz 0.00 -Ne 99.618354 -Nl RTR -Nw --- -Ma 0 -Md ffffffff -Ms 4 -Mt 800 -Is 4.255 -Id -1.255 -It message -Il 32 -If 0 -Ii 5 -Iv 32 
r -t 0.635502480 -Hs 5 -Hd -1 -Ni 5 -Nx 698.00 -Ny 230.00 -Nz 0.00 -Ne 99.618354 -Nl RTR -Nw --- -Ma 0 -Md ffffffff -Ms 4 -Mt 800 -Is 4.255 -Id -1.255 -It message -Il 32 -If 0 -Ii 5 -Iv 32 
r -t 0.635502492 -Hs 2 -Hd -1 -Ni 2 -Nx 582.00 -Ny 411.00 -Nz 0.00 -Ne 99.618354 -Nl RTR -Nw --- -Ma 0 -Md ffffffff -Ms 4 -Mt 800 -Is 4.255 -Id -1.255 -It message -Il 32 -If 0 -Ii 5 -Iv 32 
s -t 0.889120254 -Hs 2 -Hd -1 -Ni 2 -Nx 582.00 -Ny 411.00 -Nz 0.00 -Ne 99.618354 -Nl RTR -Nw --- -Ma 0 -Md 0 -Ms 0 -Mt 0 -Is 2.255 -Id -1.255 -It message -Il 32 -If 0 -Ii 6 -Iv 32 
s -t 0.889335254 -Hs 2 -Hd -1 -Ni 2 -Nx 582.00 -Ny 411.00 -Nz 0.00 -Ne 99.618354 -Nl MAC -Nw --- -Ma 0 -Md ffffffff -Ms 2 -Mt 800 -Is 2.255 -Id -1.255 -It message -Il 90 -If 0 -Ii 6 -Iv 32 
N -t 0.889336 -n 3 -e 99.465535
N -t 0.889336 -n 7 -e 99.465534
N -t 0.889336 -n 1 -e 99.465390
N -t 0.889336 -n 6 -e 99.465390
N -t 0.889336 -n 4 -e 99.465390
N -t 0.889336 -n 5 -e 99.465534
N -t 0.889336 -n 0 -e 99.465390
N -t 0.889336 -n 8 -e 99.465390
N -t 0.889336 -n 9 -e 99.465534
r -t 0.890055730 -Hs 3 -Hd -1 -Ni 3 -Nx 678.00 -Ny 517.00 -Nz 0.00 -Ne 99.465535 -Nl MAC -Nw --- -Ma 0 -Md ffffffff -Ms 2 -Mt 800 -Is 2.255 -Id -1.255 -It message -Il 32 -If 0 -Ii 6 -Iv 32 
r -t 0.890055854 -Hs 7 -Hd -1 -Ni 7 -Nx 416.00 -Ny 341.00 -Nz 0.00 -Ne 99.465534 -Nl MAC -Nw --- -Ma 0 -Md ffffffff -Ms 2 -Mt 800 -Is 2.255 -Id -1.255 -It message -Il 32 -If 0 -Ii 6 -Iv 32 
r -t 0.890055876 -Hs 1 -Hd -1 -Ni 1 -Nx 429.00 -Ny 518.00 -Nz 0.00 -Ne 99.465390 -Nl MAC -Nw --- -Ma 0 -Md ffffffff -Ms 2 -Mt 800 -Is 2.255 -Id -1.255 -It message -Il 32 -If 0 -Ii 6 -Iv 32 
r -t 0.890055921 -Hs 6 -Hd -1 -Ni 6 -Nx 516.00 -Ny 222.00 -Nz 0.00 -Ne 99.465390 -Nl MAC -Nw --- -Ma 0 -Md ffffffff -Ms 2 -Mt 800 -Is 2.255 -Id -1.255 -It message -Il 32 -If 0 -Ii 6 -Iv 32 
r -t 0.890055950 -Hs 4 -Hd -1 -Ni 4 -Nx 791.00 -Ny 413.00 -Nz 0.00 -Ne 99.465390 -Nl MAC -Nw --- -Ma 0 -Md ffffffff -Ms 2 -Mt 800 -Is 2.255 -Id -1.255 -It message -Il 32 -If 0 -Ii 6 -Iv 32 
r -t 0.890055970 -Hs 5 -Hd -1 -Ni 5 -Nx 698.00 -Ny 230.00 -Nz 0.00 -Ne 99.465534 -Nl MAC -Nw --- -Ma 0 -Md ffffffff -Ms 2 -Mt 800 -Is 2.255 -Id -1.255 -It message -Il 32 -If 0 -Ii 6 -Iv 32 
r -t 0.890080730 -Hs 3 -Hd -1 -Ni 3 -Nx 678.00 -Ny 517.00 -Nz 0.00 -Ne 99.465535 -Nl RTR -Nw --- -Ma 0 -Md ffffffff -Ms 2 -Mt 800 -Is 2.255 -Id -1.255 -It message -Il 32 -If 0 -Ii 6 -Iv 32 
r -t 0.890080854 -Hs 7 -Hd -1 -Ni 7 -Nx 416.00 -Ny 341.00 -Nz 0.00 -Ne 99.465534 -Nl RTR -Nw --- -Ma 0 -Md ffffffff -Ms 2 -Mt 800 -Is 2.255 -Id -1.255 -It message -Il 32 -If 0 -Ii 6 -Iv 32 
r -t 0.890080876 -Hs 1 -Hd -1 -Ni 1 -Nx 429.00 -Ny 518.00 -Nz 0.00 -Ne 99.465390 -Nl RTR -Nw --- -Ma 0 -Md ffffffff -Ms 2 -Mt 800 -Is 2.255 -Id -1.255 -It message -Il 32 -If 0 -Ii 6 -Iv 32 
r -t 0.890080921 -Hs 6 -Hd -1 -Ni 6 -Nx 516.00 -Ny 222.00 -Nz 0.00 -Ne 99.465390 -Nl RTR -Nw --- -Ma 0 -Md ffffffff -Ms 2 -Mt 800 -Is 2.255 -Id -1.255 -It message -Il 32 -If 0 -Ii 6 -Iv 32 
r -t 0.890080950 -Hs 4 -Hd -1 -Ni 4 -Nx 791.00 -Ny 413.00 -Nz 0.00 -Ne 99.465390 -Nl RTR -Nw --- -Ma 0 -Md ffffffff -Ms 2 -Mt 800 -Is 2.255 -Id -1.255 -It message -Il 32 -If 0 -Ii 6 -Iv 32 
r -t 0.890080970 -Hs 5 -Hd -1 -Ni 5 -Nx 698.00 -Ny 230.00 -Nz 0.00 -Ne 99.465534 -Nl RTR -Nw --- -Ma 0 -Md ffffffff -Ms 2 -Mt 800 -Is 2.255 -Id -1.255 -It message -Il 32 -If 0 -Ii 6 -Iv 32 
M 1.00000 2 (582.00, 411.00, 0.00), (750.00, 350.00), 20.00
M 1.00000 7 (416.00, 341.00, 0.00), (650.00, 280.00), 10.00
s -t 1.000000000 -Hs 0 -Hd -2 -Ni 0 -Nx 260.00 -Ny 415.00 -Nz 0.00 -Ne 99.465390 -Nl AGT -Nw --- -Ma 0 -Md 0 -Ms 0 -Mt 0 -Is 0.0 -Id 5.0 -It tcp -Il 40 -If 0 -Ii 7 -Iv 32 -Pn tcp -Ps 0 -Pa 0 -Pf 0 -Po 0 
r -t 1.000000000 -Hs 0 -Hd -2 -Ni 0 -Nx 260.00 -Ny 415.00 -Nz 0.00 -Ne 99.465390 -Nl RTR -Nw --- -Ma 0 -Md 0 -Ms 0 -Mt 0 -Is 0.0 -Id 5.0 -It tcp -Il 40 -If 0 -Ii 7 -Iv 32 -Pn tcp -Ps 0 -Pa 0 -Pf 0 -Po 0 
s -t 1.278822271 -Hs 7 -Hd -1 -Ni 7 -Nx 418.70 -Ny 340.30 -Nz 0.00 -Ne 99.465534 -Nl RTR -Nw --- -Ma 0 -Md 0 -Ms 0 -Mt 0 -Is 7.255 -Id -1.255 -It message -Il 32 -If 0 -Ii 8 -Iv 32 
s -t 1.278997271 -Hs 7 -Hd -1 -Ni 7 -Nx 418.70 -Ny 340.30 -Nz 0.00 -Ne 99.465534 -Nl MAC -Nw --- -Ma 0 -Md ffffffff -Ms 7 -Mt 800 -Is 7.255 -Id -1.255 -It message -Il 90 -If 0 -Ii 8 -Iv 32 
N -t 1.278998 -n 8 -e 99.231521
N -t 1.278998 -n 6 -e 99.231521
N -t 1.278998 -n 0 -e 99.231521
N -t 1.278998 -n 1 -e 99.231521
N -t 1.278998 -n 2 -e 99.231521
N -t 1.278998 -n 9 -e 99.231665
N -t 1.278998 -n 5 -e 99.231665
N -t 1.278998 -n 3 -e 99.231665
N -t 1.278999 -n 4 -e 99.231521
r -t 1.279717776 -Hs 8 -Hd -1 -Ni 8 -Nx 315.00 -Ny 230.00 -Nz 0.00 -Ne 99.231521 -Nl MAC -Nw --- -Ma 0 -Md ffffffff -Ms 7 -Mt 800 -Is 7.255 -Id -1.255 -It message -Il 32 -If 0 -Ii 8 -Iv 32 
r -t 1.279717782 -Hs 6 -Hd -1 -Ni 6 -Nx 516.00 -Ny 222.00 -Nz 0.00 -Ne 99.231521 -Nl MAC -Nw --- -Ma 0 -Md ffffffff -Ms 7 -Mt 800 -Is 7.255 -Id -1.255 -It message -Il 32 -If 0 -Ii 8 -Iv 32 
r -t 1.279717856 -Hs 0 -Hd -1 -Ni 0 -Nx 260.00 -Ny 415.00 -Nz 0.00 -Ne 99.231521 -Nl MAC -Nw --- -Ma 0 -Md ffffffff -Ms 7 -Mt 800 -Is 7.255 -Id -1.255 -It message -Il 32 -If 0 -Ii 8 -Iv 32 
r -t 1.279717865 -Hs 1 -Hd -1 -Ni 1 -Nx 429.00 -Ny 518.00 -Nz 0.00 -Ne 99.231521 -Nl MAC -Nw --- -Ma 0 -Md ffffffff -Ms 7 -Mt 800 -Is 7.255 -Id -1.255 -It message -Il 32 -If 0 -Ii 8 -Iv 32 
r -t 1.279717878 -Hs 2 -Hd -1 -Ni 2 -Nx 587.26 -Ny 409.09 -Nz 0.00 -Ne 99.231521 -Nl MAC -Nw --- -Ma 0 -Md ffffffff -Ms 7 -Mt 800 -Is 7.255 -Id -1.255 -It message -Il 32 -If 0 -Ii 8 -Iv 32 
r -t 1.279742776 -Hs 8 -Hd -1 -Ni 8 -Nx 315.00 -Ny 230.00 -Nz 0.00 -Ne 99.231521 -Nl RTR -Nw --- -Ma 0 -Md ffffffff -Ms 7 -Mt 800 -Is 7.255 -Id -1.255 -It message -Il 32 -If 0 -Ii 8 -Iv 32 
r -t 1.279742782 -Hs 6 -Hd -1 -Ni 6 -Nx 516.00 -Ny 222.00 -Nz 0.00 -Ne 99.231521 -Nl RTR -Nw --- -Ma 0 -Md ffffffff -Ms 7 -Mt 800 -Is 7.255 -Id -1.255 -It message -Il 32 -If 0 -Ii 8 -Iv 32 
r -t 1.279742856 -Hs 0 -Hd -1 -Ni 0 -Nx 260.00 -Ny 415.00 -Nz 0.00 -Ne 99.231521 -Nl RTR -Nw --- -Ma 0 -Md ffffffff -Ms 7 -Mt 800 -Is 7.255 -Id -1.255 -It message -Il 32 -If 0 -Ii 8 -Iv 32 
r -t 1.279742865 -Hs 1 -Hd -1 -Ni 1 -Nx 429.00 -Ny 518.00 -Nz 0.00 -Ne 99.231521 -Nl RTR -Nw --- -Ma 0 -Md ffffffff -Ms 7 -Mt 800 -Is 7.255 -Id -1.255 -It message -Il 32 -If 0 -Ii 8 -Iv 32 
r -t 1.279742878 -Hs 2 -Hd -1 -Ni 2 -Nx 587.26 -Ny 409.09 -Nz 0.00 -Ne 99.231521 -Nl RTR -Nw --- -Ma 0 -Md ffffffff -Ms 7 -Mt 800 -Is 7.255 -Id -1.255 -It message -Il 32 -If 0 -Ii 8 -Iv 32 
s -t 1.607773557 -Hs 3 -Hd -1 -Ni 3 -Nx 678.00 -Ny 517.00 -Nz 0.00 -Ne 99.231665 -Nl RTR -Nw --- -Ma 0 -Md 0 -Ms 0 -Mt 0 -Is 3.255 -Id -1.255 -It message -Il 32 -If 0 -Ii 9 -Iv 32 
s -t 1.608428557 -Hs 3 -Hd -1 -Ni 3 -Nx 678.00 -Ny 517.00 -Nz 0.00 -Ne 99.231665 -Nl MAC -Nw --- -Ma 0 -Md ffffffff -Ms 3 -Mt 800 -Is 3.255 -Id -1.255 -It message -Il 90 -If 0 -Ii 9 -Iv 32 
N -t 1.608429 -n 2 -e 99.033791
N -t 1.608429 -n 4 -e 99.033791
N -t 1.608429 -n 1 -e 99.033790
N -t 1.608430 -n 5 -e 99.033934
N -t 1.608430 -n 7 -e 99.033790
N -t 1.608430 -n 6 -e 99.033790
N -t 1.608430 -n 0 -e 99.033790
N -t 1.608430 -n 8 -e 99.033790
N -t 1.608430 -n 9 -e 99.033934
r -t 1.609149019 -Hs 2 -Hd -1 -Ni 2 -Nx 593.45 -Ny 406.84 -Nz 0.00 -Ne 99.033791 -Nl MAC -Nw --- -Ma 0 -Md ffffffff -Ms 3 -Mt 800 -Is 3.255 -Id -1.255 -It message -Il 32 -If 0 -Ii 9 -Iv 32 
r -t 1.609149068 -Hs 4 -Hd -1 -Ni 4 -Nx 791.00 -Ny 413.00 -Nz 0.00 -Ne 99.033791 -Nl MAC -Nw --- -Ma 0 -Md ffffffff -Ms 3 -Mt 800 -Is 3.255 -Id -1.255 -It message -Il 32 -If 0 -Ii 9 -Iv 32 
r -t 1.609149387 -Hs 1 -Hd -1 -Ni 1 -Nx 429.00 -Ny 518.00 -Nz 0.00 -Ne 99.033790 -Nl MAC -Nw --- -Ma 0 -Md ffffffff -Ms 3 -Mt 800 -Is 3.255 -Id -1.255 -It message -Il 32 -If 0 -Ii 9 -Iv 32 
r -t 1.609174019 -Hs 2 -Hd -1 -Ni 2 -Nx 593.45 -Ny 406.84 -Nz 0.00 -Ne 99.033791 -Nl RTR -Nw --- -Ma 0 -Md ffffffff -Ms 3 -Mt 800 -Is 3.255 -Id -1.255 -It message -Il 32 -If 0 -Ii 9 -Iv 32 
r -t 1.609174068 -Hs 4 -Hd -1 -Ni 4 -Nx 791.00 -Ny 413.00 -Nz 0.00 -Ne 99.033791 -Nl RTR -Nw --- -Ma 0 -Md ffffffff -Ms 3 -Mt 800 -Is 3.255 -Id -1.255 -It message -Il 32 -If 0 -Ii 9 -Iv 32 
r -t 1.609174387 -Hs 1 -Hd -1 -Ni 1 -Nx 429.00 -Ny 518.00 -Nz 0.00 -Ne 99.033790 -Nl RTR -Nw --- -Ma 0 -Md ffffffff -Ms 3 -Mt 800 -Is 3.255 -Id -1.255 -It message -Il 32 -If 0 -Ii 9 -Iv 32 
s -t 1.633060186 -Hs 5 -Hd -1 -Ni 5 -Nx 698.00 -Ny 230.00 -Nz 0.00 -Ne 99.033934 -Nl RTR -Nw --- -Ma 0 -Md 0 -Ms 0 -Mt 0 -Is 5.255 -Id -1.255 -It message -Il 32 -If 0 -Ii 10 -Iv 32 
s -t 1.633635186 -Hs 5 -Hd -1 -Ni 5 -Nx 698.00 -Ny 230.00 -Nz 0.00 -Ne 99.033934 -Nl MAC -Nw --- -Ma 0 -Md ffffffff -Ms 5 -Mt 800 -Is 5.255 -Id -1.255 -It message -Il 90 -If 0 -Ii 10 -Iv 32 
N -t 1.633636 -n 6 -e 99.018595
N -t 1.633636 -n 2 -e 99.018594
N -t 1.633636 -n 4 -e 99.018594
N -t 1.633636 -n 9 -e 99.018738
N -t 1.633636 -n 3 -e 99.018594
N -t 1.633636 -n 7 -e 99.018594
N -t 1.633636 -n 8 -e 99.018594
N -t 1.633636 -n 1 -e 99.018594
N -t 1.633637 -n 0 -e 99.018594
r -t 1.634355793 -Hs 6 -Hd -1 -Ni 6 -Nx 516.00 -Ny 222.00 -Nz 0.00 -Ne 99.018595 -Nl MAC -Nw --- -Ma 0 -Md ffffffff -Ms 5 -Mt 800 -Is 5.255 -Id -1.255 -It message -Il 32 -If 0 -Ii 10 -Iv 32 
r -t 1.634355870 -Hs 2 -Hd -1 -Ni 2 -Nx 593.93 -Ny 406.67 -Nz 0.00 -Ne 99.018594 -Nl MAC -Nw --- -Ma 0 -Md ffffffff -Ms 5 -Mt 800 -Is 5.255 -Id -1.255 -It message -Il 32 -If 0 -Ii 10 -Iv 32 
r -t 1.634355870 -Hs 4 -Hd -1 -Ni 4 -Nx 791.00 -Ny 413.00 -Nz 0.00 -Ne 99.018594 -Nl MAC -Nw --- -Ma 0 -Md ffffffff -Ms 5 -Mt 800 -Is 5.255 -Id -1.255 -It message -Il 32 -If 0 -Ii 10 -Iv 32 
r -t 1.634355978 -Hs 9 -Hd -1 -Ni 9 -Nx 514.00 -Ny 80.00 -Nz 0.00 -Ne 99.018738 -Nl MAC -Nw --- -Ma 0 -Md ffffffff -Ms 5 -Mt 800 -Is 5.255 -Id -1.255 -It message -Il 32 -If 0 -Ii 10 -Iv 32 
r -t 1.634380793 -Hs 6 -Hd -1 -Ni 6 -Nx 516.00 -Ny 222.00 -Nz 0.00 -Ne 99.018595 -Nl RTR -Nw --- -Ma 0 -Md ffffffff -Ms 5 -Mt 800 -Is 5.255 -Id -1.255 -It message -Il 32 -If 0 -Ii 10 -Iv 32 
r -t 1.634380870 -Hs 2 -Hd -1 -Ni 2 -Nx 593.93 -Ny 406.67 -Nz 0.00 -Ne 99.018594 -Nl RTR -Nw --- -Ma 0 -Md ffffffff -Ms 5 -Mt 800 -Is 5.255 -Id -1.255 -It message -Il 32 -If 0 -Ii 10 -Iv 32 
r -t 1.634380870 -Hs 4 -Hd -1 -Ni 4 -Nx 791.00 -Ny 413.00 -Nz 0.00 -Ne 99.018594 -Nl RTR -Nw --- -Ma 0 -Md ffffffff -Ms 5 -Mt 800 -Is 5.255 -Id -1.255 -It message -Il 32 -If 0 -Ii 10 -Iv 32 
r -t 1.634380978 -Hs 9 -Hd -1 -Ni 9 -Nx 514.00 -Ny 80.00 -Nz 0.00 -Ne 99.018738 -Nl RTR -Nw --- -Ma 0 -Md ffffffff -Ms 5 -Mt 800 -Is 5.255 -Id -1.255 -It message -Il 32 -If 0 -Ii 10 -Iv 32 
s -t 1.679333313 -Hs 9 -Hd -1 -Ni 9 -Nx 514.00 -Ny 80.00 -Nz 0.00 -Ne 99.018738 -Nl RTR -Nw --- -Ma 0 -Md 0 -Ms 0 -Mt 0 -Is 9.255 -Id -1.255 -It message -Il 32 -If 0 -Ii 11 -Iv 32 
s -t 1.679888313 -Hs 9 -Hd -1 -Ni 9 -Nx 514.00 -Ny 80.00 -Nz 0.00 -Ne 99.018738 -Nl MAC -Nw --- -Ma 0 -Md ffffffff -Ms 9 -Mt 800 -Is 9.255 -Id -1.255 -It message -Il 90 -If 0 -Ii 11 -Iv 32 
N -t 1.679889 -n 6 -e 98.990771
N -t 1.679889 -n 5 -e 98.990771
N -t 1.679889 -n 8 -e 98.990771
N -t 1.679889 -n 7 -e 98.990770
N -t 1.679889 -n 2 -e 98.990770
N -t 1.679890 -n 0 -e 98.990770
N -t 1.679890 -n 4 -e 98.990770
N -t 1.679890 -n 1 -e 98.990770
N -t 1.679890 -n 3 -e 98.990770
r -t 1.680608786 -Hs 6 -Hd -1 -Ni 6 -Nx 516.00 -Ny 222.00 -Nz 0.00 -Ne 98.990771 -Nl MAC -Nw --- -Ma 0 -Md ffffffff -Ms 9 -Mt 800 -Is 9.255 -Id -1.255 -It message -Il 32 -If 0 -Ii 11 -Iv 32 
r -t 1.680609104 -Hs 5 -Hd -1 -Ni 5 -Nx 698.00 -Ny 230.00 -Nz 0.00 -Ne 98.990771 -Nl MAC -Nw --- -Ma 0 -Md ffffffff -Ms 9 -Mt 800 -Is 9.255 -Id -1.255 -It message -Il 32 -If 0 -Ii 11 -Iv 32 
r -t 1.680609143 -Hs 8 -Hd -1 -Ni 8 -Nx 315.00 -Ny 230.00 -Nz 0.00 -Ne 98.990771 -Nl MAC -Nw --- -Ma 0 -Md ffffffff -Ms 9 -Mt 800 -Is 9.255 -Id -1.255 -It message -Il 32 -If 0 -Ii 11 -Iv 32 
r -t 1.680633786 -Hs 6 -Hd -1 -Ni 6 -Nx 516.00 -Ny 222.00 -Nz 0.00 -Ne 98.990771 -Nl RTR -Nw --- -Ma 0 -Md ffffffff -Ms 9 -Mt 800 -Is 9.255 -Id -1.255 -It message -Il 32 -If 0 -Ii 11 -Iv 32 
r -t 1.680634104 -Hs 5 -Hd -1 -Ni 5 -Nx 698.00 -Ny 230.00 -Nz 0.00 -Ne 98.990771 -Nl RTR -Nw --- -Ma 0 -Md ffffffff -Ms 9 -Mt 800 -Is 9.255 -Id -1.255 -It message -Il 32 -If 0 -Ii 11 -Iv 32 
r -t 1.680634143 -Hs 8 -Hd -1 -Ni 8 -Nx 315.00 -Ny 230.00 -Nz 0.00 -Ne 98.990771 -Nl RTR -Nw --- -Ma 0 -Md ffffffff -Ms 9 -Mt 800 -Is 9.255 -Id -1.255 -It message -Il 32 -If 0 -Ii 11 -Iv 32 
s -t 3.500000000 -Hs 8 -Hd -2 -Ni 8 -Nx 315.00 -Ny 230.00 -Nz 0.00 -Ne 98.990771 -Nl AGT -Nw --- -Ma 0 -Md 0 -Ms 0 -Mt 0 -Is 8.0 -Id 3.0 -It tcp -Il 40 -If 0 -Ii 12 -Iv 32 -Pn tcp -Ps 0 -Pa 0 -Pf 0 -Po 0 
r -t 3.500000000 -Hs 8 -Hd -2 -Ni 8 -Nx 315.00 -Ny 230.00 -Nz 0.00 -Ne 98.990771 -Nl RTR -Nw --- -Ma 0 -Md 0 -Ms 0 -Mt 0 -Is 8.0 -Id 3.0 -It tcp -Il 40 -If 0 -Ii 12 -Iv 32 -Pn tcp -Ps 0 -Pa 0 -Pf 0 -Po 0 
s -t 4.000000000 -Hs 0 -Hd -2 -Ni 0 -Nx 260.00 -Ny 415.00 -Nz 0.00 -Ne 98.990770 -Nl AGT -Nw --- -Ma 0 -Md 0 -Ms 0 -Mt 0 -Is 0.0 -Id 5.0 -It tcp -Il 40 -If 0 -Ii 13 -Iv 32 -Pn tcp -Ps 0 -Pa 0 -Pf 0 -Po 0 
r -t 4.000000000 -Hs 0 -Hd -2 -Ni 0 -Nx 260.00 -Ny 415.00 -Nz 0.00 -Ne 98.990770 -Nl RTR -Nw --- -Ma 0 -Md 0 -Ms 0 -Mt 0 -Is 0.0 -Id 5.0 -It tcp -Il 40 -If 0 -Ii 13 -Iv 32 -Pn tcp -Ps 0 -Pa 0 -Pf 0 -Po 0 
s -t 9.500000000 -Hs 8 -Hd -2 -Ni 8 -Nx 315.00 -Ny 230.00 -Nz 0.00 -Ne 98.990771 -Nl AGT -Nw --- -Ma 0 -Md 0 -Ms 0 -Mt 0 -Is 8.0 -Id 3.0 -It tcp -Il 40 -If 0 -Ii 14 -Iv 32 -Pn tcp -Ps 0 -Pa 0 -Pf 0 -Po 0 
r -t 9.500000000 -Hs 8 -Hd -2 -Ni 8 -Nx 315.00 -Ny 230.00 -Nz 0.00 -Ne 98.990771 -Nl RTR -Nw --- -Ma 0 -Md 0 -Ms 0 -Mt 0 -Is 8.0 -Id 3.0 -It tcp -Il 40 -If 0 -Ii 14 -Iv 32 -Pn tcp -Ps 0 -Pa 0 -Pf 0 -Po 0 
s -t 11.447655470 -Hs 0 -Hd -1 -Ni 0 -Nx 260.00 -Ny 415.00 -Nz 0.00 -Ne 98.990770 -Nl RTR -Nw --- -Ma 0 -Md 0 -Ms 0 -Mt 0 -Is 0.255 -Id -1.255 -It message -Il 32 -If 0 -Ii 15 -Iv 32 
s -t 11.447890470 -Hs 0 -Hd -1 -Ni 0 -Nx 260.00 -Ny 415.00 -Nz 0.00 -Ne 98.990770 -Nl MAC -Nw --- -Ma 0 -Md ffffffff -Ms 0 -Mt 800 -Is 0.255 -Id -1.255 -It message -Il 90 -If 0 -Ii 15 -Iv 32 
N -t 11.447891 -n 8 -e 93.129897
N -t 11.447891 -n 1 -e 93.129897
N -t 11.447891 -n 7 -e 93.129897
N -t 11.447892 -n 6 -e 93.129897
N -t 11.447892 -n 9 -e 93.129897
N -t 11.447892 -n 3 -e 93.129897
N -t 11.447892 -n 5 -e 93.129897
N -t 11.447892 -n 2 -e 93.129897
N -t 11.447892 -n 4 -e 93.129897
r -t 11.448611113 -Hs 8 -Hd -1 -Ni 8 -Nx 315.00 -Ny 230.00 -Nz 0.00 -Ne 93.129897 -Nl MAC -Nw --- -Ma 0 -Md ffffffff -Ms 0 -Mt 800 -Is 0.255 -Id -1.255 -It message -Il 32 -If 0 -Ii 15 -Iv 32 
r -t 11.448611129 -Hs 1 -Hd -1 -Ni 1 -Nx 429.00 -Ny 518.00 -Nz 0.00 -Ne 93.129897 -Nl MAC -Nw --- -Ma 0 -Md ffffffff -Ms 0 -Mt 800 -Is 0.255 -Id -1.255 -It message -Il 32 -If 0 -Ii 15 -Iv 32 
r -t 11.448636113 -Hs 8 -Hd -1 -Ni 8 -Nx 315.00 -Ny 230.00 -Nz 0.00 -Ne 93.129897 -Nl RTR -Nw --- -Ma 0 -Md ffffffff -Ms 0 -Mt 800 -Is 0.255 -Id -1.255 -It message -Il 32 -If 0 -Ii 15 -Iv 32 
r -t 11.448636129 -Hs 1 -Hd -1 -Ni 1 -Nx 429.00 -Ny 518.00 -Nz 0.00 -Ne 93.129897 -Nl RTR -Nw --- -Ma 0 -Md ffffffff -Ms 0 -Mt 800 -Is 0.255 -Id -1.255 -It message -Il 32 -If 0 -Ii 15 -Iv 32 
s -t 12.031306926 -Hs 7 -Hd -1 -Ni 7 -Nx 522.75 -Ny 313.17 -Nz 0.00 -Ne 93.129897 -Nl RTR -Nw --- -Ma 0 -Md 0 -Ms 0 -Mt 0 -Is 7.255 -Id -1.255 -It message -Il 32 -If 0 -Ii 16 -Iv 32 
s -t 12.031681926 -Hs 7 -Hd -1 -Ni 7 -Nx 522.75 -Ny 313.17 -Nz 0.00 -Ne 93.129897 -Nl MAC -Nw --- -Ma 0 -Md ffffffff -Ms 7 -Mt 800 -Is 7.255 -Id -1.255 -It message -Il 90 -If 0 -Ii 16 -Iv 32 
N -t 12.031682 -n 6 -e 92.779551
N -t 12.031683 -n 5 -e 92.779550
N -t 12.031683 -n 8 -e 92.779550
N -t 12.031683 -n 1 -e 92.779550
N -t 12.031683 -n 2 -e 92.779550
N -t 12.031683 -n 9 -e 92.779550
N -t 12.031683 -n 3 -e 92.779550
N -t 12.031683 -n 0 -e 92.779406
N -t 12.031683 -n 4 -e 92.779550
r -t 12.032402230 -Hs 6 -Hd -1 -Ni 6 -Nx 516.00 -Ny 222.00 -Nz 0.00 -Ne 92.779551 -Nl MAC -Nw --- -Ma 0 -Md ffffffff -Ms 7 -Mt 800 -Is 7.255 -Id -1.255 -It message -Il 32 -If 0 -Ii 16 -Iv 32 
r -t 12.032402572 -Hs 5 -Hd -1 -Ni 5 -Nx 698.00 -Ny 230.00 -Nz 0.00 -Ne 92.779550 -Nl MAC -Nw --- -Ma 0 -Md ffffffff -Ms 7 -Mt 800 -Is 7.255 -Id -1.255 -It message -Il 32 -If 0 -Ii 16 -Iv 32 
r -t 12.032402672 -Hs 8 -Hd -1 -Ni 8 -Nx 315.00 -Ny 230.00 -Nz 0.00 -Ne 92.779550 -Nl MAC -Nw --- -Ma 0 -Md ffffffff -Ms 7 -Mt 800 -Is 7.255 -Id -1.255 -It message -Il 32 -If 0 -Ii 16 -Iv 32 
r -t 12.032402677 -Hs 1 -Hd -1 -Ni 1 -Nx 429.00 -Ny 518.00 -Nz 0.00 -Ne 92.779550 -Nl MAC -Nw --- -Ma 0 -Md ffffffff -Ms 7 -Mt 800 -Is 7.255 -Id -1.255 -It message -Il 32 -If 0 -Ii 16 -Iv 32 
r -t 12.032402693 -Hs 2 -Hd -1 -Ni 2 -Nx 750.00 -Ny 350.00 -Nz 0.00 -Ne 92.779550 -Nl MAC -Nw --- -Ma 0 -Md ffffffff -Ms 7 -Mt 800 -Is 7.255 -Id -1.255 -It message -Il 32 -If 0 -Ii 16 -Iv 32 
r -t 12.032402703 -Hs 9 -Hd -1 -Ni 9 -Nx 514.00 -Ny 80.00 -Nz 0.00 -Ne 92.779550 -Nl MAC -Nw --- -Ma 0 -Md ffffffff -Ms 7 -Mt 800 -Is 7.255 -Id -1.255 -It message -Il 32 -If 0 -Ii 16 -Iv 32 
r -t 12.032427230 -Hs 6 -Hd -1 -Ni 6 -Nx 516.00 -Ny 222.00 -Nz 0.00 -Ne 92.779551 -Nl RTR -Nw --- -Ma 0 -Md ffffffff -Ms 7 -Mt 800 -Is 7.255 -Id -1.255 -It message -Il 32 -If 0 -Ii 16 -Iv 32 
r -t 12.032427572 -Hs 5 -Hd -1 -Ni 5 -Nx 698.00 -Ny 230.00 -Nz 0.00 -Ne 92.779550 -Nl RTR -Nw --- -Ma 0 -Md ffffffff -Ms 7 -Mt 800 -Is 7.255 -Id -1.255 -It message -Il 32 -If 0 -Ii 16 -Iv 32 
r -t 12.032427672 -Hs 8 -Hd -1 -Ni 8 -Nx 315.00 -Ny 230.00 -Nz 0.00 -Ne 92.779550 -Nl RTR -Nw --- -Ma 0 -Md ffffffff -Ms 7 -Mt 800 -Is 7.255 -Id -1.255 -It message -Il 32 -If 0 -Ii 16 -Iv 32 
r -t 12.032427677 -Hs 1 -Hd -1 -Ni 1 -Nx 429.00 -Ny 518.00 -Nz 0.00 -Ne 92.779550 -Nl RTR -Nw --- -Ma 0 -Md ffffffff -Ms 7 -Mt 800 -Is 7.255 -Id -1.255 -It message -Il 32 -If 0 -Ii 16 -Iv 32 
r -t 12.032427693 -Hs 2 -Hd -1 -Ni 2 -Nx 750.00 -Ny 350.00 -Nz 0.00 -Ne 92.779550 -Nl RTR -Nw --- -Ma 0 -Md ffffffff -Ms 7 -Mt 800 -Is 7.255 -Id -1.255 -It message -Il 32 -If 0 -Ii 16 -Iv 32 
r -t 12.032427703 -Hs 9 -Hd -1 -Ni 9 -Nx 514.00 -Ny 80.00 -Nz 0.00 -Ne 92.779550 -Nl RTR -Nw --- -Ma 0 -Md ffffffff -Ms 7 -Mt 800 -Is 7.255 -Id -1.255 -It message -Il 32 -If 0 -Ii 16 -Iv 32 
s -t 12.193993113 -Hs 2 -Hd -1 -Ni 2 -Nx 750.00 -Ny 350.00 -Nz 0.00 -Ne 92.779550 -Nl RTR -Nw --- -Ma 0 -Md 0 -Ms 0 -Mt 0 -Is 2.255 -Id -1.255 -It message -Il 32 -If 0 -Ii 19 -Iv 32 
s -t 12.194348113 -Hs 2 -Hd -1 -Ni 2 -Nx 750.00 -Ny 350.00 -Nz 0.00 -Ne 92.779550 -Nl MAC -Nw --- -Ma 0 -Md ffffffff -Ms 2 -Mt 800 -Is 2.255 -Id -1.255 -It message -Il 90 -If 0 -Ii 19 -Iv 32 
N -t 12.194348 -n 4 -e 92.681879
N -t 12.194349 -n 5 -e 92.681879
N -t 12.194349 -n 3 -e 92.681879
N -t 12.194349 -n 7 -e 92.681735
N -t 12.194349 -n 6 -e 92.681879
N -t 12.194349 -n 9 -e 92.681878
N -t 12.194349 -n 1 -e 92.681878
N -t 12.194350 -n 8 -e 92.681878
N -t 12.194350 -n 0 -e 92.681734
r -t 12.195068364 -Hs 4 -Hd -1 -Ni 4 -Nx 791.00 -Ny 413.00 -Nz 0.00 -Ne 92.681879 -Nl MAC -Nw --- -Ma 0 -Md ffffffff -Ms 2 -Mt 800 -Is 2.255 -Id -1.255 -It message -Il 32 -If 0 -Ii 19 -Iv 32 
r -t 12.195068549 -Hs 5 -Hd -1 -Ni 5 -Nx 698.00 -Ny 230.00 -Nz 0.00 -Ne 92.681879 -Nl MAC -Nw --- -Ma 0 -Md ffffffff -Ms 2 -Mt 800 -Is 2.255 -Id -1.255 -It message -Il 32 -If 0 -Ii 19 -Iv 32 
r -t 12.195068719 -Hs 3 -Hd -1 -Ni 3 -Nx 678.00 -Ny 517.00 -Nz 0.00 -Ne 92.681879 -Nl MAC -Nw --- -Ma 0 -Md ffffffff -Ms 2 -Mt 800 -Is 2.255 -Id -1.255 -It message -Il 32 -If 0 -Ii 19 -Iv 32 
r -t 12.195068875 -Hs 7 -Hd -1 -Ni 7 -Nx 524.33 -Ny 312.76 -Nz 0.00 -Ne 92.681735 -Nl MAC -Nw --- -Ma 0 -Md ffffffff -Ms 2 -Mt 800 -Is 2.255 -Id -1.255 -It message -Il 32 -If 0 -Ii 19 -Iv 32 